/*--------------------------------*- C++ -*----------------------------------*\
| =========                 |                                                 |
| \\      /  F ield         | OpenFOAM: The Open Source CFD Toolbox           |
|  \\    /   O peration     | Version:  2106                                  |
|   \\  /    A nd           | Website:  www.openfoam.com                      |
|    \\/     M anipulation  |                                                 |
\*---------------------------------------------------------------------------*/
FoamFile
{
    version     2.0;
    format      ascii;
    arch        "LSB;label=32;scalar=64";
    class       volScalarField;
    location    "0.26";
    object      p;
}
// * * * * * * * * * * * * * * * * * * * * * * * * * * * * * * * * * * * * * //

dimensions      [0 2 -2 0 0 0 0];

internalField   nonuniform List<scalar> 
9600
(
1.27931e-11
0.00078378
0.000876679
0.000859734
0.000830112
0.00125661
0.00125169
-0.00021249
0.0017185
0.00236646
0.00213145
0.00108069
0.00176302
0.00143697
1.37205e-05
0.000794513
-0.000118548
0.000508562
0.000506855
0.00163052
1.46914e-06
0.000782497
0.000876468
0.000860675
0.000831873
0.00124611
0.00124784
-0.000172872
0.00172159
0.00235077
0.0021354
0.00106588
0.00177713
0.00141562
3.03717e-05
0.0007526
-9.05756e-05
0.000487701
0.000521484
0.00146989
3.25694e-06
0.000780905
0.00087666
0.000861437
0.000833007
0.00123529
0.00124564
-0.00014791
0.00171907
0.00232941
0.00213669
0.00104531
0.00179299
0.00138722
5.20841e-05
0.000709329
-4.35617e-05
0.000447898
0.000527482
0.00125585
5.22577e-06
0.00077951
0.000877021
0.000861582
0.000833943
0.0012247
0.00124273
-0.000120612
0.00171471
0.002303
0.00213248
0.0010195
0.00180664
0.00135476
7.48987e-05
0.000668165
1.31837e-06
0.000403342
0.000514117
0.00104817
7.65815e-06
0.000778205
0.000877308
0.000861198
0.000835234
0.00121358
0.00123886
-9.15439e-05
0.00170914
0.00227106
0.00212517
0.000989619
0.00182047
0.00131939
9.98283e-05
0.000626754
4.10705e-05
0.000360771
0.000479103
0.000860554
1.06414e-05
0.000776804
0.000877463
0.000860414
0.000836888
0.00120177
0.00123459
-6.09202e-05
0.00170246
0.00223517
0.00211661
0.000957654
0.00183513
0.00128345
0.000126769
0.000585095
7.8619e-05
0.000318398
0.000424139
0.000696252
1.41003e-05
0.000775205
0.000877485
0.000859324
0.000838868
0.00118946
0.00123021
-2.91487e-05
0.00169508
0.0021969
0.00210729
0.000924852
0.00184988
0.00124888
0.000153498
0.000545949
0.00011157
0.000275415
0.000353942
0.000548209
1.79197e-05
0.000773363
0.000877416
0.000858046
0.000841142
0.00117675
0.00122582
3.46953e-06
0.00168733
0.00215709
0.0020973
0.000891652
0.00186418
0.00121625
0.000178377
0.000511275
0.000136001
0.000235718
0.000270179
0.000407056
2.2011e-05
0.000771267
0.000877328
0.000856655
0.000843631
0.00116365
0.00122148
3.67222e-05
0.00167928
0.00211624
0.00208656
0.000858296
0.00187753
0.00118591
0.000200543
0.000481748
0.000150471
0.00020234
0.0001715
0.000266923
2.63294e-05
0.000768923
0.000877289
0.000855167
0.00084626
0.00115019
0.00121719
7.04221e-05
0.00167101
0.00207465
0.00207483
0.000825044
0.00188925
0.00115879
0.000218745
0.000457975
0.000154882
0.000175155
5.84812e-05
0.000124948
3.0865e-05
0.00076633
0.000877339
0.000853566
0.00084899
0.00113636
0.00121297
0.00010443
0.00166253
0.00203254
0.00206183
0.000792208
0.00189871
0.00113587
0.000231417
0.000440907
0.000148702
0.000152382
-6.52204e-05
-2.1848e-05
3.56284e-05
0.000763473
0.000877502
0.000851835
0.000851809
0.00112217
0.0012088
0.000138649
0.00165385
0.00199003
0.00204726
0.000760195
0.00190526
0.00111802
0.000237164
0.00043127
0.000131271
0.00013152
-0.000194327
-0.000176869
4.06401e-05
0.000760326
0.000877793
0.000849959
0.000854713
0.00110763
0.00120464
0.000173008
0.0016449
0.00194726
0.00203081
0.00072952
0.00190808
0.00110617
0.000234911
0.00042904
0.000102755
0.000109065
-0.00032296
-0.000342265
4.59258e-05
0.000756851
0.000878225
0.000847925
0.000857706
0.00109273
0.00120046
0.000207457
0.00163559
0.00190443
0.00201212
0.0007008
0.00190625
0.00110112
0.000223883
0.000433388
6.4653e-05
8.04494e-05
-0.000445423
-0.000517851
5.15152e-05
0.000753003
0.000878808
0.000845726
0.000860787
0.00107749
0.00119624
0.000241961
0.0016258
0.0018618
0.00199076
0.000674681
0.00189891
0.0011034
0.000203625
0.000442666
1.99604e-05
4.07059e-05
-0.000557089
-0.000701144
5.74418e-05
0.000748733
0.000879547
0.000843354
0.000863958
0.00106196
0.00119192
0.000276517
0.00161535
0.0018197
0.00196627
0.000651682
0.00188538
0.00111327
0.000174168
0.000454488
-2.71481e-05
-1.45455e-05
-0.00065535
-0.000887595
6.3743e-05
0.000743983
0.000880447
0.000840809
0.000867206
0.00104617
0.00118745
0.000311173
0.00160399
0.00177853
0.00193821
0.000632202
0.00186514
0.00113058
0.000136393
0.000465577
-7.24073e-05
-8.81011e-05
-0.000740102
-0.00107131
7.04612e-05
0.000738696
0.000881505
0.000838102
0.000870509
0.0010302
0.00118274
0.000346034
0.00159138
0.00173868
0.00190619
0.000616553
0.00183782
0.0011548
9.20935e-05
0.000471868
-0.000112361
-0.00018063
-0.00081333
-0.00124576
7.76433e-05
0.000732807
0.000882709
0.000835252
0.000873827
0.00101414
0.00117764
0.000381238
0.00157723
0.0017005
0.00186992
0.000604818
0.00180323
0.00118488
4.3994e-05
0.000469496
-0.000144506
-0.00029035
-0.000879035
-0.00140444
8.53369e-05
0.000726257
0.000884036
0.000832299
0.000877089
0.00099813
0.00117196
0.000416954
0.00156128
0.00166423
0.00182921
0.00059679
0.00176156
0.00121998
-4.75604e-06
0.000455276
-0.000167525
-0.000413487
-0.000942442
-0.00154178
9.35934e-05
0.000718987
0.000885443
0.000829296
0.000880214
0.000982345
0.00116547
0.000453352
0.00154331
0.00162995
0.00178413
0.000591999
0.00171366
0.00125645
-5.18172e-05
0.000426514
-0.000181381
-0.000544908
-0.00100902
-0.00165411
0.000102471
0.000710937
0.000886869
0.000826316
0.000883089
0.000967041
0.00115787
0.000490538
0.00152319
0.00159758
0.00173505
0.000589653
0.00166082
0.00129349
-9.5518e-05
0.000381099
-0.000187211
-0.000678946
-0.00108357
-0.00173992
0.000112018
0.000702061
0.000888233
0.000823471
0.000885557
0.000952452
0.00114892
0.00052858
0.00150088
0.00156689
0.00168263
0.000588683
0.00160414
0.00132995
-0.000134214
0.000318169
-0.000187225
-0.000809931
-0.00116948
-0.00179997
0.000122288
0.000692325
0.000889404
0.000820905
0.000887431
0.000938809
0.00113845
0.000567461
0.00147648
0.00153739
0.0016278
0.000588122
0.00154432
0.00136421
-0.000166353
0.000238055
-0.000184416
-0.000932248
-0.00126854
-0.00183801
0.000133342
0.000681743
0.0008902
0.000818773
0.000888505
0.000926347
0.00112638
0.000606956
0.00145041
0.00150832
0.00157158
0.000587502
0.00148215
0.00139458
-0.000190655
0.000141777
-0.000182479
-0.00104034
-0.00138054
-0.00186051
0.000145231
0.000670337
0.000890405
0.000817268
0.000888565
0.000915215
0.00111276
0.000646686
0.00142325
0.00147874
0.00151472
0.000586514
0.00141792
0.00141955
-0.000205885
3.10461e-05
-0.000185759
-0.00112929
-0.00150292
-0.0018755
0.000157993
0.00065816
0.000889755
0.000816596
0.000887473
0.000905496
0.00109771
0.000686131
0.00139582
0.00144786
0.00145775
0.000585173
0.00135143
0.00143741
-0.000211046
-9.13582e-05
-0.000198826
-0.0011959
-0.00163112
-0.00189148
0.00017165
0.00064532
0.000887935
0.000816938
0.00088517
0.000897195
0.00108153
0.000724524
0.00136906
0.00141519
0.00140084
0.000584021
0.00128299
0.00144613
-0.000206167
-0.000221499
-0.000225622
-0.00123909
-0.00175877
-0.00191616
0.000186209
0.00063197
0.000884609
0.00081843
0.000881613
0.0008902
0.00106478
0.000760853
0.00134352
0.00138065
0.00134359
0.000583228
0.00121343
0.00144413
-0.000192365
-0.000354638
-0.000268702
-0.00125991
-0.00187831
-0.00195552
0.000201659
0.000618329
0.000879434
0.000821083
0.000876915
0.000884185
0.00104816
0.000794107
0.00131949
0.00134465
0.00128526
0.000582244
0.00114448
0.00143085
-0.000171545
-0.000486043
-0.000329051
-0.00126167
-0.00198203
-0.00201281
0.000217938
0.000604692
0.000872078
0.000824826
0.000871344
0.000878595
0.00103243
0.000823994
0.00129685
0.00130787
0.00122539
0.000580178
0.00107792
0.00140623
-0.000145962
-0.000611774
-0.000406464
-0.0012495
-0.00206246
-0.00208698
0.000234969
0.000591357
0.000862262
0.000829488
0.000865261
0.000872829
0.00101815
0.000849683
0.00127493
0.0012713
0.00116414
0.000575456
0.00101432
0.00137133
-0.000117347
-0.00072867
-0.000499759
-0.00122968
-0.00211339
-0.00217233
0.000252634
0.00057863
0.000849786
0.000834777
0.000859247
0.000866301
0.00100561
0.000867862
0.00125302
0.00123544
0.00110167
0.000566834
0.000953479
0.00132772
-8.71577e-05
-0.000833922
-0.000606384
-0.00120879
-0.0021316
-0.002259
0.00027076
0.000566849
0.000834575
0.000840661
0.000854012
0.000858457
0.000994905
0.000888501
0.00123022
0.00119996
0.00103887
0.000553353
0.000895086
0.00127678
-5.69116e-05
-0.000925127
-0.000722334
-0.00119309
-0.00211838
-0.0023344
0.000289143
0.000556349
0.000816823
0.000845597
0.000850165
0.000849079
0.000985721
0.000907774
0.00120561
0.001164
0.000977217
0.000534643
0.000837638
0.00121967
-2.76287e-05
-0.0010009
-0.000842981
-0.00118713
-0.0020793
-0.00238625
0.00030753
0.000547389
0.000797106
0.000848793
0.000848027
0.000838264
0.000977287
0.000926673
0.00117909
0.00112603
0.00091764
0.000511686
0.000779976
0.0011568
4.58049e-08
-0.00106074
-0.000964221
-0.00119243
-0.00202186
-0.00240574
0.000325695
0.000540214
0.000775945
0.000849337
0.0008477
0.000826523
0.000968477
0.000945835
0.00115119
0.00108431
0.000860004
0.0004871
0.000722356
0.00108777
2.50018e-05
-0.00110383
-0.0010822
-0.0012083
-0.00195436
-0.00239025
0.000343435
0.000535007
0.000754182
0.000846342
0.000848844
0.000814807
0.00095823
0.000965039
0.00112368
0.00103825
0.000803517
0.000462007
0.000665459
0.00101326
4.51166e-05
-0.00113035
-0.00119246
-0.00123194
-0.00188428
-0.00234516
0.000360563
0.000531764
0.000732571
0.000839339
0.00085066
0.000804175
0.000945862
0.000983552
0.00109825
0.000988008
0.000745652
0.000435855
0.000612107
0.000935981
5.81359e-05
-0.00114296
-0.00129192
-0.00125877
-0.0018139
-0.00228113
0.000376955
0.000530247
0.000712064
0.000828042
0.000851916
0.0007956
0.000931222
0.0010002
0.00107614
0.000934294
0.000683915
0.000408077
0.000564442
0.000858917
6.36877e-05
-0.00114458
-0.00138034
-0.00128598
-0.00173859
-0.00220623
0.000392513
0.000530092
0.00069346
0.000812848
0.000850969
0.000789482
0.000914889
0.00101346
0.00105832
0.000877274
0.000617091
0.000376106
0.000522263
0.00078589
6.27932e-05
-0.00113728
-0.00145822
-0.00131537
-0.00165289
-0.00211916
0.000407193
0.000530841
0.000677388
0.000794733
0.000846196
0.000785736
0.000898181
0.00102176
0.00104461
0.000823301
0.000544957
0.000336428
0.000484265
0.000721246
5.82609e-05
-0.0011227
-0.00152521
-0.00135138
-0.00155861
-0.00201137
0.000421023
0.000531952
0.000664234
0.000775208
0.000836077
0.000783364
0.000883016
0.00102424
0.00103324
0.000774373
0.000469511
0.000287938
0.000447155
0.000665964
5.54549e-05
-0.00110123
-0.00158048
-0.00139708
-0.00146663
-0.00187598
0.00043406
0.000532996
0.000654025
0.00075601
0.000819922
0.000780161
0.000871076
0.00102137
0.00102093
0.000731038
0.000395549
0.000231103
0.000406006
0.000618943
5.92541e-05
-0.00107175
-0.00162224
-0.00145109
-0.00139026
-0.00171602
0.00044641
0.000533552
0.000646863
0.000738808
0.000797681
0.000773268
0.000862945
0.00101532
0.00100494
0.000693038
0.00032802
0.000166958
0.000356547
0.000577384
7.09592e-05
-0.00102995
-0.00164759
-0.0015089
-0.00133955
-0.00154756
0.000458238
0.000533188
0.000641439
0.000725125
0.000770447
0.000759888
0.000858029
0.00100944
0.000985075
0.000657217
0.000268045
0.000101384
0.000298947
0.000534784
8.93288e-05
-0.00097187
-0.00165348
-0.00156394
-0.00131682
-0.00139132
0.000469721
0.000531726
0.000636913
0.000716026
0.000740376
0.000737751
0.000854141
0.00100722
0.000962347
0.000618236
0.000214001
4.19737e-05
0.000236536
0.000484549
0.000108811
-0.000898183
-0.0016337
-0.00160813
-0.00131627
-0.00126714
0.000481004
0.000529143
0.00063189
0.000711898
0.000710443
0.00070556
0.000847437
0.00101052
0.000939644
0.000573868
0.000164443
-8.17029e-06
0.000175319
0.000427949
0.000120278
-0.000814706
-0.00158409
-0.00163259
-0.00132361
-0.00118363
0.000492178
0.000525593
0.000625189
0.000712575
0.000683941
0.000663562
0.000832822
0.00101884
0.000923326
0.000525854
0.000112429
-5.10233e-05
0.000123652
0.000369579
0.00011858
-0.000731101
-0.00150934
-0.00162951
-0.00132414
-0.00112768
0.000503267
0.000521411
0.000615783
0.000717039
0.000663413
0.000613373
0.000805661
0.00103042
0.000918845
0.000476766
5.17999e-05
-8.97474e-05
8.7468e-05
0.000316273
0.000105073
-0.000658441
-0.00141712
-0.00159851
-0.00130749
-0.00107317
0.000514212
0.000517135
0.000602891
0.000723379
0.000651137
0.00055836
0.000763124
0.00104062
0.000929024
0.000432902
-1.84518e-05
-0.000132917
6.42788e-05
0.000280875
8.64402e-05
-0.00060511
-0.00131937
-0.00154518
-0.00127436
-0.00100142
0.000524864
0.00051345
0.000586249
0.00072912
0.000648409
0.000503173
0.000704013
0.00104276
0.00095357
0.000403982
-9.48972e-05
-0.000190018
4.78479e-05
0.000271184
7.47307e-05
-0.000572363
-0.00123134
-0.00147359
-0.0012324
-0.000910459
0.000534871
0.000511036
0.000566045
0.000731727
0.000655603
0.000453057
0.000629292
0.00102945
0.000989793
0.000399063
-0.000171805
-0.000266097
2.74162e-05
0.00028249
8.85427e-05
-0.000548412
-0.0011688
-0.00139545
-0.00118378
-0.000817421
0.000543885
0.000510423
0.00054278
0.000728544
0.000671756
0.000413322
0.000541472
0.000994943
0.00103191
0.000422144
-0.000238386
-0.000360543
-1.01769e-05
0.00030662
0.000136088
-0.000513355
-0.00113388
-0.00133207
-0.00112913
-0.000737093
0.000551397
0.000511916
0.000517946
0.000717682
0.000694032
0.000387907
0.000445856
0.000935579
0.00107084
0.000472694
-0.00028031
-0.000466211
-7.6e-05
0.000330946
0.000212991
-0.000444462
-0.00110844
-0.00130393
-0.00107939
-0.000670331
0.000556938
0.000515655
0.000493521
0.000697764
0.000718324
0.000379669
0.000350274
0.000850289
0.00109638
0.000547452
-0.000286634
-0.000572564
-0.000173941
0.000336386
0.000309454
-0.00033263
-0.00106509
-0.00130774
-0.0010572
-0.000617097
0.000560246
0.000521412
0.000471865
0.000668479
0.000739652
0.000389604
0.000263369
0.000741694
0.00109871
0.000639048
-0.00025154
-0.000663532
-0.00029774
0.000306387
0.000410221
-0.000180937
-0.00097798
-0.00132135
-0.00107909
-0.000589387
0.000560624
0.000528644
0.000454956
0.000630765
0.000753044
0.000416685
0.000193268
0.000614703
0.00106998
0.000734911
-0.000174386
-0.000722284
-0.000437048
0.000232371
0.000491883
-2.47488e-06
-0.000834542
-0.00130933
-0.00113575
-0.000607261
0.000558341
0.000536403
0.000443981
0.000586577
0.000754637
0.000456664
0.000146102
0.000478371
0.00100602
0.000820433
-5.96528e-05
-0.000735506
-0.000576237
0.000115175
0.000534447
0.000184737
-0.000639013
-0.00124125
-0.00119971
-0.000678708
0.00055354
0.000543393
0.000439542
0.000539544
0.000741677
0.000502684
0.00012576
0.000345251
0.000907901
0.000882158
8.25891e-05
-0.000695927
-0.000693526
-3.45731e-05
0.000523496
0.000356251
-0.000407498
-0.00110587
-0.00123
-0.000785281
0.000546659
0.000548462
0.000441423
0.000493949
0.000713395
0.000546779
0.000132676
0.000228396
0.000781064
0.000908459
0.000235067
-0.0006044
-0.000769205
-0.000200094
0.000452456
0.000488418
-0.000159002
-0.000910771
-0.00119741
-0.000892553
0.000538305
0.000550558
0.000448421
0.000454034
0.000671287
0.000581392
0.000164466
0.000137439
0.000635867
0.000892665
0.000378352
-0.000466912
-0.000790539
-0.000356024
0.000330494
0.00055937
8.0186e-05
-0.000671475
-0.00109393
-0.000959614
0.000529103
0.000549107
0.000458587
0.000422501
0.00061842
0.000601006
0.000214101
7.82455e-05
0.000487541
0.000835494
0.0004953
-0.000296637
-0.000752531
-0.000479121
0.000176721
0.000557311
0.000280947
-0.000406992
-0.000927645
-0.000960833
0.000519678
0.000544025
0.00046937
0.000400609
0.000560122
0.00060261
0.000271617
5.28132e-05
0.000351679
0.000743339
0.00057297
-0.000115509
-0.000658988
-0.000554122
1.80408e-05
0.000491246
0.000416874
-0.000146251
-0.000712809
-0.000889981
0.000510513
0.000535577
0.000478319
0.00038823
0.00050265
0.000586237
0.000326513
5.8713e-05
0.000240755
0.000627562
0.000605482
5.39041e-05
-0.000519434
-0.000571585
-0.000120044
0.000381678
0.000475839
7.82213e-05
-0.000469934
-0.000755982
0.000501851
0.000524333
0.000483509
0.00038402
0.000451579
0.000554708
0.000370312
9.00211e-05
0.000162366
0.00050458
0.000595321
0.000194147
-0.000353294
-0.00053144
-0.000219755
0.000254626
0.000467613
0.000241511
-0.000229012
-0.000574962
0.000493695
0.000511245
0.000483989
0.000385658
0.000410366
0.0005127
0.000398031
0.000136081
0.000118432
0.000390807
0.000550379
0.000294319
-0.00018421
-0.000442398
-0.000269709
0.000135822
0.000412365
0.000335633
-1.97812e-05
-0.00037013
0.000485917
0.000497339
0.000479771
0.000390018
0.000380003
0.000466655
0.000408542
0.000185427
0.000105458
0.000298253
0.000483274
0.000351983
-3.13215e-05
-0.00032046
-0.000267934
4.43291e-05
0.000334363
0.0003703
0.000138952
-0.000169143
0.000478289
0.000483437
0.000471538
0.000394303
0.000359791
0.000422643
0.000404154
0.000229232
0.000116972
0.00023332
0.000409796
0.000372703
9.24487e-05
-0.000186702
-0.000222555
-8.45481e-06
0.000256891
0.000363044
0.000242929
4.72844e-06
0.000470557
0.000470111
0.000460331
0.000396531
0.000347769
0.000384842
0.000388919
0.000262442
0.000143282
0.000196193
0.000343275
0.000365834
0.000181491
-5.87409e-05
-0.000146282
-2.06123e-05
0.000196837
0.000333952
0.000300087
0.000139143
0.000462538
0.000457595
0.000447342
0.000395779
0.000341512
0.000355187
0.000367821
0.000283441
0.000174766
0.000182354
0.000291738
0.00034362
0.000237958
5.13139e-05
-5.55529e-05
9.52927e-07
0.000162891
0.000301276
0.000324149
0.000232845
0.000454127
0.000445907
0.000433733
0.000392079
0.000338471
0.00033366
0.000345564
0.000293439
0.000204501
0.000185659
0.000258092
0.00031753
0.000268974
0.000137462
3.52595e-05
4.61744e-05
0.000155826
0.000277118
0.000329791
0.000292514
0.000445327
0.000434974
0.000420411
0.00038597
0.000336493
0.000319022
0.000325462
0.000295339
0.00022868
0.000198909
0.000240974
0.000294988
0.000282787
0.000199629
0.000116249
0.000103246
0.000170458
0.000266886
0.000329383
0.00032834
0.000436261
0.00042469
0.000407897
0.00037817
0.000334216
0.000309485
0.000309061
0.000292185
0.00024606
0.000215754
0.000236481
0.000279533
0.000287271
0.000241696
0.000182202
0.000161659
0.000199471
0.000270606
0.000330578
0.000350102
0.000427114
0.000414971
0.000396419
0.000369464
0.000331005
0.000303226
0.000296563
0.000286487
0.000256941
0.0002319
0.000240122
0.000271751
0.000288285
0.000268959
0.000232133
0.000213994
0.000234672
0.000284738
0.000336346
0.000365055
0.000418129
0.000405793
0.00038603
0.000360536
0.000326727
0.000298596
0.000287389
0.000280098
0.000262379
0.000244736
0.000247347
0.000269772
0.000288911
0.000286235
0.000267814
0.000256421
0.000269054
0.000304307
0.000346215
0.000377101
0.000409588
0.000397228
0.000376689
0.000351868
0.000321608
0.000294403
0.000280423
0.000273992
0.000263967
0.000253179
0.000254407
0.000270757
0.000289714
0.000296951
0.000292121
0.000288171
0.000297999
0.000323938
0.000357714
0.000387416
0.0004018
0.000389498
0.000368471
0.000343814
0.000315986
0.00029018
0.00027459
0.000268069
0.000262873
0.000257787
0.000259652
0.000272266
0.000289683
0.000302361
0.000307365
0.000310651
0.000320669
0.000340982
0.000368099
0.000394789
0.000394726
0.000382642
0.000361628
0.000337214
0.000311231
0.000287084
0.000270958
0.000264069
0.000261703
0.000261043
0.000264636
0.000275226
0.000290661
0.00030553
0.000316683
0.000326067
0.000338357
0.000356547
0.000379626
0.000403608
0.000388267
0.000374888
0.000351915
0.000325792
0.000299412
0.000275492
0.000258591
0.000250462
0.000248373
0.000249555
0.000254389
0.000264253
0.000278164
0.000292934
0.000306187
0.000318481
0.000332416
0.00035004
0.000371071
0.000393102
0.00332
3.37845e-05
-0.00620219
-0.0106623
-0.0112975
-0.00992923
-0.00832815
-0.00704335
-0.00612701
-0.00548493
-0.00502788
-0.00467059
-0.00436468
-0.00410517
-0.00376206
-0.00330947
-0.00299567
-0.00284794
-0.00262315
-0.00229596
-0.00201381
-0.00181031
-0.00162362
-0.00138475
-0.00108231
-0.000804048
-0.00061572
-0.000437409
-0.000176248
0.000102757
0.000306971
0.000503359
0.000778125
0.00106668
0.00131174
0.00157721
0.00188918
0.00219737
0.00249938
0.00282081
0.00314956
0.00347584
0.00380793
0.00414582
0.00448951
0.00484079
0.0051926
0.00554394
0.00590375
0.00627153
0.00663968
0.00700922
0.00738567
0.00776843
0.00815494
0.00854556
0.00894196
0.00934383
0.00975116
0.0101637
0.0105825
0.011007
0.0114383
0.0118754
0.01232
0.0127706
0.0132292
0.0136941
0.0141672
0.0146473
0.0151357
0.0156322
0.0161366
0.016651
0.0171723
0.0177054
0.0182449
0.0187972
0.0193565
0.019928
0.020509
0.0210994
0.0217037
0.0223139
0.0229414
0.0235744
0.0242233
0.0248828
0.0255519
0.0262398
0.026932
0.0276455
0.0283685
0.029103
0.029867
0.0306218
0.0314353
0.0322463
0.0330329
0.0339433
0.00293169
-5.7678e-05
-0.00609776
-0.0105291
-0.0112245
-0.00989409
-0.00830613
-0.00702767
-0.00611505
-0.00547511
-0.00501938
-0.00466312
-0.00435816
-0.00409977
-0.00375756
-0.00330511
-0.00299151
-0.00284452
-0.00262027
-0.00229318
-0.00201116
-0.0018079
-0.0016215
-0.0013829
-0.00108057
-0.000802317
-0.000614142
-0.000436107
-0.000175091
0.000103911
0.000308021
0.000504193
0.000778854
0.00106739
0.00131235
0.00157769
0.0018896
0.00219775
0.00249968
0.00282107
0.00314979
0.00347603
0.00380809
0.00414595
0.00448961
0.00484087
0.00519267
0.005544
0.0059038
0.00627156
0.00663971
0.00700925
0.00738568
0.00776844
0.00815495
0.00854556
0.00894197
0.00934383
0.00975116
0.0101637
0.0105825
0.011007
0.0114383
0.0118754
0.01232
0.0127706
0.0132292
0.0136941
0.0141672
0.0146473
0.0151357
0.0156322
0.0161366
0.016651
0.0171723
0.0177054
0.0182449
0.0187972
0.0193565
0.019928
0.020509
0.0210994
0.0217037
0.0223139
0.0229414
0.0235744
0.0242233
0.0248828
0.0255519
0.0262398
0.026932
0.0276455
0.0283685
0.029103
0.029867
0.0306218
0.0314353
0.0322463
0.033033
0.0339434
0.0024825
-0.000172027
-0.00589065
-0.010268
-0.0110925
-0.00984429
-0.00828025
-0.00700891
-0.00610063
-0.00546394
-0.00501043
-0.00465542
-0.00435111
-0.00409367
-0.00375255
-0.00330061
-0.0029874
-0.00284109
-0.00261731
-0.00229044
-0.00200868
-0.00180566
-0.00161948
-0.00138109
-0.00107886
-0.000800658
-0.000612665
-0.00043487
-0.000173936
0.000105063
0.000309021
0.000504986
0.000779598
0.00106812
0.00131294
0.00157815
0.00189004
0.00219814
0.00249999
0.00282133
0.00315003
0.00347623
0.00380825
0.00414608
0.00448972
0.00484097
0.00519275
0.00554406
0.00590385
0.00627161
0.00663974
0.00700927
0.0073857
0.00776845
0.00815496
0.00854557
0.00894197
0.00934384
0.00975116
0.0101637
0.0105825
0.011007
0.0114383
0.0118754
0.01232
0.0127706
0.0132292
0.0136941
0.0141672
0.0146473
0.0151357
0.0156322
0.0161366
0.016651
0.0171723
0.0177054
0.0182449
0.0187972
0.0193565
0.019928
0.020509
0.0210994
0.0217037
0.0223139
0.0229414
0.0235744
0.0242233
0.0248828
0.0255519
0.0262398
0.026932
0.0276455
0.0283685
0.029103
0.029867
0.0306218
0.0314353
0.0322463
0.033033
0.0339435
0.00205406
-0.000268186
-0.00561399
-0.0099204
-0.0109026
-0.00977106
-0.00824201
-0.00698108
-0.00607975
-0.00544861
-0.00499908
-0.00464612
-0.00434216
-0.00408507
-0.00374546
-0.00329512
-0.00298252
-0.00283626
-0.00261285
-0.00228688
-0.00200588
-0.00180304
-0.00161684
-0.00137868
-0.00107676
-0.00079871
-0.000610817
-0.000433172
-0.00017237
0.000106522
0.000310312
0.000506112
0.00078067
0.00106912
0.00131377
0.00157887
0.00189071
0.00219871
0.00250045
0.00282173
0.00315038
0.00347652
0.0038085
0.0041463
0.0044899
0.00484111
0.00519288
0.00554417
0.00590393
0.00627168
0.0066398
0.00700931
0.00738574
0.00776848
0.00815499
0.00854559
0.00894198
0.00934385
0.00975117
0.0101637
0.0105825
0.011007
0.0114383
0.0118754
0.01232
0.0127706
0.0132292
0.0136941
0.0141672
0.0146473
0.0151357
0.0156322
0.0161366
0.016651
0.0171723
0.0177054
0.0182449
0.0187972
0.0193565
0.019928
0.020509
0.0210994
0.0217037
0.0223139
0.0229414
0.0235744
0.0242233
0.0248828
0.0255519
0.0262398
0.026932
0.0276455
0.0283685
0.029103
0.029867
0.0306218
0.0314353
0.0322463
0.033033
0.0339438
0.00165391
-0.000363875
-0.00532208
-0.00954381
-0.0106876
-0.00968668
-0.00819761
-0.00694693
-0.0060529
-0.00542856
-0.00498437
-0.00463445
-0.00433059
-0.00407288
-0.00373524
-0.00328832
-0.00297677
-0.00282936
-0.00260588
-0.00228175
-0.00200237
-0.00179963
-0.00161299
-0.00137511
-0.00107398
-0.000796297
-0.000608219
-0.000430495
-0.000170003
0.000108556
0.000312232
0.000507981
0.000782408
0.00107067
0.00131514
0.00158012
0.00189184
0.00219967
0.00250125
0.00282243
0.00315098
0.00347703
0.00380895
0.00414668
0.00449021
0.00484137
0.0051931
0.00554436
0.00590409
0.00627181
0.0066399
0.0070094
0.00738581
0.00776854
0.00815503
0.00854562
0.00894201
0.00934387
0.00975118
0.0101637
0.0105825
0.011007
0.0114383
0.0118754
0.01232
0.0127706
0.0132292
0.0136941
0.0141672
0.0146473
0.0151357
0.0156322
0.0161366
0.016651
0.0171723
0.0177054
0.0182449
0.0187972
0.0193565
0.019928
0.020509
0.0210994
0.0217037
0.0223139
0.0229414
0.0235744
0.0242233
0.0248828
0.0255519
0.0262398
0.026932
0.0276455
0.0283685
0.029103
0.029867
0.0306218
0.0314353
0.0322463
0.0330331
0.0339441
0.00127265
-0.000483787
-0.00504011
-0.00915486
-0.010456
-0.00959617
-0.00815173
-0.00691023
-0.00602248
-0.00540513
-0.00496697
-0.00462064
-0.00431664
-0.00405742
-0.00372213
-0.00328036
-0.00297031
-0.00282045
-0.00259629
-0.00227483
-0.00199792
-0.00179518
-0.00160758
-0.00137002
-0.00107038
-0.000793414
-0.000604696
-0.000426486
-0.000166557
0.000111348
0.000315052
0.000510948
0.000785105
0.001073
0.00131732
0.0015822
0.00189369
0.00220123
0.00250259
0.00282361
0.00315199
0.0034779
0.00380972
0.00414735
0.00449076
0.00484182
0.00519349
0.0055447
0.00590438
0.00627204
0.00664009
0.00700956
0.00738594
0.00776865
0.00815511
0.00854569
0.00894206
0.00934391
0.00975122
0.0101638
0.0105826
0.011007
0.0114383
0.0118754
0.01232
0.0127706
0.0132292
0.0136941
0.0141672
0.0146473
0.0151357
0.0156322
0.0161366
0.016651
0.0171723
0.0177054
0.0182449
0.0187972
0.0193565
0.019928
0.020509
0.0210994
0.0217037
0.0223139
0.0229414
0.0235744
0.0242233
0.0248828
0.0255519
0.0262398
0.026932
0.0276455
0.0283685
0.029103
0.029867
0.0306217
0.0314353
0.0322463
0.0330331
0.0339445
0.000904289
-0.000634535
-0.00477244
-0.00875324
-0.0102058
-0.00949849
-0.00810506
-0.0068722
-0.00598945
-0.00537908
-0.00494747
-0.00460515
-0.00430095
-0.0040398
-0.0037071
-0.00327155
-0.00296329
-0.0028101
-0.00258475
-0.00226646
-0.00199254
-0.0017896
-0.0016005
-0.00136332
-0.00106592
-0.000790088
-0.00060025
-0.000421053
-0.000161934
0.000114966
0.000318915
0.000515222
0.000788939
0.00107627
0.00132051
0.00158531
0.00189643
0.00220357
0.00250466
0.00282542
0.00315354
0.00347925
0.00381093
0.00414841
0.00449164
0.00484254
0.00519411
0.00554526
0.00590487
0.00627243
0.0066404
0.00700983
0.00738618
0.00776884
0.00815527
0.00854581
0.00894216
0.00934399
0.00975128
0.0101638
0.0105826
0.0110071
0.0114383
0.0118754
0.01232
0.0127706
0.0132292
0.0136941
0.0141672
0.0146473
0.0151357
0.0156322
0.0161366
0.016651
0.0171723
0.0177054
0.0182449
0.0187972
0.0193565
0.019928
0.020509
0.0210994
0.0217037
0.0223139
0.0229414
0.0235744
0.0242233
0.0248828
0.0255519
0.0262398
0.026932
0.0276455
0.0283685
0.0291029
0.029867
0.0306217
0.0314352
0.0322462
0.0330331
0.033945
0.000552769
-0.000807273
-0.00451745
-0.00833807
-0.00993501
-0.00939251
-0.00805796
-0.00683374
-0.00595436
-0.00535064
-0.00492603
-0.0045882
-0.00428401
-0.00402087
-0.00369082
-0.00326196
-0.00295571
-0.00279884
-0.00257207
-0.00225718
-0.00198644
-0.00178304
-0.00159201
-0.00135522
-0.00106064
-0.000786336
-0.000595024
-0.000414396
-0.000156256
0.000119358
0.000323781
0.000520782
0.000793904
0.00108049
0.00132474
0.00158952
0.00190012
0.00220674
0.00250752
0.00282795
0.00315572
0.00348117
0.00381266
0.00414994
0.00449292
0.00484359
0.00519501
0.00554609
0.00590559
0.00627302
0.00664089
0.00701025
0.00738654
0.00776914
0.00815551
0.00854601
0.00894233
0.00934412
0.00975138
0.0101639
0.0105827
0.0110071
0.0114383
0.0118754
0.01232
0.0127706
0.0132292
0.0136941
0.0141672
0.0146473
0.0151357
0.0156322
0.0161366
0.016651
0.0171723
0.0177054
0.0182449
0.0187972
0.0193565
0.019928
0.020509
0.0210994
0.0217037
0.0223139
0.0229414
0.0235744
0.0242233
0.0248828
0.0255519
0.0262398
0.026932
0.0276455
0.0283685
0.0291029
0.029867
0.0306217
0.0314352
0.0322461
0.0330331
0.0339455
0.000227524
-0.000992152
-0.00427895
-0.0079142
-0.00964415
-0.00927746
-0.00801076
-0.00679567
-0.00591767
-0.0053198
-0.00490254
-0.00456983
-0.00426609
-0.00400099
-0.0036735
-0.00325155
-0.00294756
-0.00278698
-0.00255868
-0.00224731
-0.00197982
-0.00177578
-0.00158251
-0.00134608
-0.00105467
-0.000782166
-0.0005892
-0.000406845
-0.000149767
0.000124381
0.000329465
0.000527395
0.000799817
0.00108552
0.00132988
0.0015947
0.00190468
0.0022107
0.00251112
0.00283113
0.00315848
0.00348363
0.00381491
0.00415196
0.00449463
0.00484498
0.00519623
0.00554722
0.00590659
0.00627383
0.00664156
0.00701085
0.00738706
0.00776956
0.00815586
0.0085463
0.00894257
0.00934432
0.00975154
0.010164
0.0105828
0.0110072
0.0114384
0.0118755
0.01232
0.0127707
0.0132292
0.0136941
0.0141672
0.0146473
0.0151357
0.0156322
0.0161366
0.016651
0.0171723
0.0177054
0.0182449
0.0187972
0.0193565
0.019928
0.020509
0.0210994
0.0217037
0.0223139
0.0229414
0.0235744
0.0242233
0.0248828
0.0255519
0.0262398
0.026932
0.0276455
0.0283685
0.0291029
0.029867
0.0306216
0.0314351
0.032246
0.0330331
0.0339461
-6.38886e-05
-0.00118307
-0.00406463
-0.00748839
-0.0093334
-0.0091513
-0.0079629
-0.00675847
-0.00587965
-0.0052864
-0.00487679
-0.00455001
-0.00424723
-0.00398016
-0.00365515
-0.0032403
-0.00293889
-0.00277459
-0.00254467
-0.00223686
-0.00197275
-0.00176802
-0.00157232
-0.00133619
-0.00104811
-0.000777594
-0.000582916
-0.000398663
-0.000142673
0.000129901
0.000335752
0.000534774
0.000806436
0.00109116
0.00133571
0.00160064