/*--------------------------------*- C++ -*----------------------------------*\
| =========                 |                                                 |
| \\      /  F ield         | OpenFOAM: The Open Source CFD Toolbox           |
|  \\    /   O peration     | Version:  2106                                  |
|   \\  /    A nd           | Website:  www.openfoam.com                      |
|    \\/     M anipulation  |                                                 |
\*---------------------------------------------------------------------------*/
FoamFile
{
    version     2.0;
    format      ascii;
    arch        "LSB;label=32;scalar=64";
    class       surfaceScalarField;
    location    "0.26";
    object      phi;
}
// * * * * * * * * * * * * * * * * * * * * * * * * * * * * * * * * * * * * * //

dimensions      [0 3 -1 0 0 0 0];

oriented        oriented;

internalField   nonuniform List<scalar> 
19000
(
1.17795e-06
-9.8088e-08
1.16973e-06
5.86554e-08
1.17078e-06
-8.87486e-08
1.17478e-06
9.52467e-09
1.17982e-06
6.55973e-08
1.15651e-06
5.62171e-08
1.15065e-06
1.19497e-07
1.18433e-06
8.7334e-11
1.18325e-06
-6.00139e-08
1.14786e-06
-4.29612e-07
1.17003e-06
3.34577e-07
1.13898e-06
-4.87664e-07
1.16987e-06
2.29987e-07
1.13863e-06
-1.70511e-07
1.16442e-06
1.80287e-07
1.13743e-06
8.99249e-08
1.15e-06
1.72919e-07
1.1409e-06
2.60419e-07
1.13495e-06
2.82726e-07
2.43383e-07
1.1078e-06
1.23349e-06
-1.07316e-07
1.22705e-06
6.50899e-08
1.22724e-06
-8.89375e-08
1.23255e-06
4.22201e-09
1.23564e-06
6.25035e-08
1.21513e-06
7.67239e-08
1.20608e-06
1.28546e-07
1.24049e-06
-3.43227e-08
1.23812e-06
-5.76406e-08
1.20515e-06
-3.96642e-07
1.22093e-06
3.18792e-07
1.19413e-06
-4.60864e-07
1.21651e-06
2.07607e-07
1.19764e-06
-1.51639e-07
1.20854e-06
1.69395e-07
1.20366e-06
9.4796e-08
1.19147e-06
1.85112e-07
1.2113e-06
2.40592e-07
1.17286e-06
3.21164e-07
2.2595e-07
1.19029e-06
1.29005e-06
-1.14581e-07
1.28816e-06
6.69803e-08
1.28573e-06
-8.65097e-08
1.29373e-06
-3.78256e-09
1.29324e-06
6.29939e-08
1.2786e-06
9.13636e-08
1.26594e-06
1.41213e-07
1.2975e-06
-6.58815e-08
1.29488e-06
-5.50215e-08
1.26767e-06
-3.69434e-07
1.27706e-06
3.09403e-07
1.2579e-06
-4.41701e-07
1.27036e-06
1.95148e-07
1.26459e-06
-1.45876e-07
1.26341e-06
1.70577e-07
1.26973e-06
8.84748e-08
1.25037e-06
2.04473e-07
1.26394e-06
2.27025e-07
1.24414e-06
3.40962e-07
2.35615e-07
1.23447e-06
1.3483e-06
-1.18777e-07
1.35129e-06
6.39848e-08
1.34616e-06
-8.13781e-08
1.35629e-06
-1.39121e-08
1.35275e-06
6.65401e-08
1.34398e-06
1.00132e-07
1.33046e-06
1.54729e-07
1.35539e-06
-9.0809e-08
1.35376e-06
-5.33901e-08
1.33342e-06
-3.49095e-07
1.33872e-06
3.04102e-07
1.32611e-06
-4.29096e-07
1.33311e-06
1.88152e-07
1.33411e-06
-1.46875e-07
1.33046e-06
1.74222e-07
1.33562e-06
8.33175e-08
1.3222e-06
2.1789e-07
1.32276e-06
2.26467e-07
1.31823e-06
3.45498e-07
2.51446e-07
1.30239e-06
1.40925e-06
-1.19677e-07
1.41558e-06
5.76563e-08
1.40896e-06
-7.47571e-08
1.41925e-06
-2.41973e-08
1.41456e-06
7.12263e-08
1.40994e-06
1.04754e-07
1.39887e-06
1.65795e-07
1.41522e-06
-1.07152e-07
1.41507e-06
-5.32431e-08
1.40072e-06
-3.34748e-07
1.40454e-06
3.00285e-07
1.39526e-06
-4.19819e-07
1.40089e-06
1.82521e-07
1.40293e-06
-1.48911e-07
1.40202e-06
1.75129e-07
1.4032e-06
8.21358e-08
1.39592e-06
2.25171e-07
1.39079e-06
2.316e-07
1.39114e-06
3.45147e-07
2.65603e-07
1.37698e-06
1.47405e-06
-1.18051e-07
1.4813e-06
5.04039e-08
1.4749e-06
-6.83495e-08
1.48327e-06
-3.25675e-08
1.4793e-06
7.51908e-08
1.47714e-06
1.06918e-07
1.47008e-06
1.72853e-07
1.47855e-06
-1.1562e-07
1.47912e-06
-5.38139e-08
1.46925e-06
-3.24879e-07
1.47328e-06
2.96254e-07
1.46484e-06
-4.11382e-07
1.47033e-06
1.77036e-07
1.47107e-06
-1.49651e-07
1.47305e-06
1.73148e-07
1.47162e-06
8.35623e-08
1.46823e-06
2.28562e-07
1.46169e-06
2.38138e-07
1.46454e-06
3.42297e-07
2.78311e-07
1.45183e-06
1.54334e-06
-1.1518e-07
1.54958e-06
4.41693e-08
1.54453e-06
-6.32966e-08
1.54994e-06
-3.79832e-08
1.54746e-06
7.76746e-08
1.54691e-06
1.07463e-07
1.54352e-06
1.76243e-07
1.54642e-06
-1.18517e-07
1.54658e-06
-5.39767e-08
1.53955e-06
-3.17847e-07
1.54458e-06
2.91223e-07
1.53579e-06
-4.02588e-07
1.54104e-06
1.71781e-07
1.53982e-06
-1.48429e-07
1.54364e-06
1.69331e-07
1.54069e-06
8.65133e-08
1.54029e-06
2.28955e-07
1.53339e-06
2.45042e-07
1.53863e-06
3.3706e-07
2.89713e-07
1.52723e-06
1.61711e-06
-1.12157e-07
1.62153e-06
3.97406e-08
1.618e-06
-5.97664e-08
1.62066e-06
-4.06393e-08
1.6194e-06
7.89393e-08
1.6202e-06
1.06661e-07
1.61942e-06
1.77024e-07
1.61908e-06
-1.18185e-07
1.61819e-06
-5.30814e-08
1.61249e-06
-3.1215e-07
1.61865e-06
2.85065e-07
1.60912e-06
-3.9306e-07
1.61411e-06
1.66792e-07
1.61069e-06
-1.45003e-07
1.61563e-06
1.64382e-07
1.61138e-06
9.07659e-08
1.61368e-06
2.26653e-07
1.60666e-06
2.52066e-07
1.61396e-06
3.29757e-07
2.99433e-07
1.60424e-06
1.69493e-06
-1.09511e-07
1.69775e-06
3.69149e-08
1.69527e-06
-5.72843e-08
1.69604e-06
-4.14118e-08
1.69539e-06
7.95902e-08
1.69735e-06
1.04704e-07
1.6983e-06
1.76073e-07
1.69635e-06
-1.16236e-07
1.69431e-06
-5.10346e-08
1.68883e-06
-3.06678e-07
1.69591e-06
2.77989e-07
1.68555e-06
-3.82699e-07
1.69051e-06
1.61834e-07
1.68481e-06
-1.39304e-07
1.69062e-06
1.58572e-07
1.68494e-06
9.64405e-08
1.68959e-06
2.22007e-07
1.68263e-06
2.59024e-07
1.69142e-06
3.20965e-07
3.07086e-07
1.68377e-06
1.77648e-06
-1.0727e-07
1.77833e-06
3.5069e-08
1.7763e-06
-5.52611e-08
1.77611e-06
-4.1213e-08
1.77561e-06
8.00854e-08
1.77844e-06
1.01874e-07
1.78059e-06
1.73925e-07
1.77791e-06
-1.13555e-07
1.77492e-06
-4.80439e-08
1.76904e-06
-3.008e-07
1.7768e-06
2.7023e-07
1.76551e-06
-3.71408e-07
1.77075e-06
1.56587e-07
1.76286e-06
-1.31411e-07
1.76954e-06
1.51896e-07
1.76237e-06
1.03604e-07
1.76891e-06
2.15475e-07
1.76221e-06
2.65715e-07
1.77178e-06
3.11395e-07
3.12342e-07
1.76653e-06
1.86172e-06
-1.05245e-07
1.86317e-06
3.36225e-08
1.86119e-06
-5.32791e-08
1.86065e-06
-4.06708e-08
1.8601e-06
8.06279e-08
1.86349e-06
9.84836e-08
1.86648e-06
1.70939e-07
1.8635e-06
-1.1058e-07
1.85989e-06
-4.44271e-08
1.85336e-06
-2.94274e-07
1.86167e-06
2.61918e-07
1.84932e-06
-3.59056e-07
1.85513e-06
1.50772e-07
1.8452e-06
-1.21481e-07
1.85287e-06
1.44232e-07
1.84435e-06
1.12126e-07
1.85229e-06
2.07532e-07
1.84612e-06
2.71885e-07
1.85566e-06
3.01854e-07
3.14908e-07
1.85309e-06
1.95084e-06
-1.03244e-07
1.95226e-06
3.22042e-08
1.95009e-06
-5.1114e-08
1.94953e-06
-4.01131e-08
1.94891e-06
8.12469e-08
1.95261e-06
9.47853e-08
1.95611e-06
1.6744e-07
1.95304e-06
-1.07508e-07
1.94915e-06
-4.05362e-08
1.94196e-06
-2.8708e-07
1.95078e-06
2.5309e-07
1.93724e-06
-3.45512e-07
1.94383e-06
1.4418e-07
1.93204e-06
-1.09687e-07
1.94079e-06
1.35479e-07
1.93121e-06
1.21708e-07
1.94008e-06
1.98665e-07
1.93479e-06
2.77176e-07
1.94344e-06
2.93203e-07
3.14563e-07
1.94378e-06
2.0441e-06
-1.01154e-07
2.04568e-06
3.06231e-08
2.04323e-06
-4.86608e-08
2.04279e-06
-3.96709e-08
2.04214e-06
8.18951e-08
2.04598e-06
9.09406e-08
2.04969e-06
1.63735e-07
2.04658e-06
-1.04407e-07
2.04277e-06
-3.67189e-08
2.03495e-06
-2.79265e-07
2.04432e-06
2.43725e-07
2.02949e-06
-3.30683e-07
2.037e-06
1.3667e-07
2.02352e-06
-9.62109e-08
2.03334e-06
1.25659e-07
2.02309e-06
1.31959e-07
2.03234e-06
1.89421e-07
2.02835e-06
2.81161e-07
2.03536e-06
2.86192e-07
3.11279e-07
2.03865e-06
2.14178e-06
-9.89295e-08
2.14361e-06
2.87932e-08
2.14082e-06
-4.58757e-08
2.14053e-06
-3.93749e-08
2.13991e-06
8.25126e-08
2.14382e-06
8.7031e-08
2.14749e-06
1.60066e-07
2.14433e-06
-1.01251e-07
2.14088e-06
-3.32708e-08
2.13247e-06
-2.70854e-07
2.14242e-06
2.33777e-07
2.12626e-06
-3.14528e-07
2.13477e-06
1.28169e-07
2.11982e-06
-8.12607e-08
2.13053e-06
1.1495e-07
2.12002e-06
1.42462e-07
2.129e-06
1.80446e-07
2.12675e-06
2.83406e-07
2.13166e-06
2.81284e-07
3.05325e-07
2.13761e-06
2.24412e-06
-9.6557e-08
2.24623e-06
2.66807e-08
2.2431e-06
-4.27499e-08
2.24294e-06
-3.92131e-08
2.24239e-06
8.30599e-08
2.24633e-06
8.30919e-08
2.24986e-06
1.56543e-07
2.24656e-06
-9.79514e-08
2.24368e-06
-3.03925e-08
2.23464e-06
-2.61818e-07
2.24523e-06
2.23193e-07
2.22777e-06
-2.97068e-07
2.23726e-06
1.18678e-07
2.22109e-06
-6.50953e-08
2.23237e-06
1.03671e-07
2.22206e-06
1.52774e-07
2.23005e-06
1.7246e-07
2.22991e-06
2.83538e-07
2.23271e-06
2.78493e-07
2.97356e-07
2.24067e-06
2.35135e-06
-9.40343e-08
2.35376e-06
2.42777e-08
2.3503e-06
-3.92983e-08
2.35025e-06
-3.91593e-08
2.34979e-06
8.35241e-08
2.35373e-06
7.91498e-08
2.35713e-06
1.53138e-07
2.35358e-06
-9.43943e-08
2.35137e-06
-2.81823e-08
2.34163e-06
-2.52079e-07
2.3529e-06
2.11923e-07
2.33421e-06
-2.78382e-07
2.34461e-06
1.08275e-07
2.32755e-06
-4.8035e-08
2.33898e-06
9.22435e-08
2.32934e-06
1.62417e-07
2.33563e-06
1.6617e-07
2.33787e-06
2.81293e-07
2.3389e-06
2.77467e-07
2.88254e-07
2.348e-06
2.46372e-06
-9.13601e-08
2.46641e-06
2.15897e-08
2.46266e-06
-3.55503e-08
2.46268e-06
-3.91818e-08
2.4623e-06
8.39049e-08
2.46621e-06
7.52476e-08
2.46961e-06
1.49731e-07
2.46569e-06
-9.04671e-08
2.46417e-06
-2.6667e-08
2.45364e-06
-2.41552e-07
2.46562e-06
1.99946e-07
2.44585e-06
-2.58613e-07
2.457e-06
9.71283e-08
2.43942e-06
-3.04602e-08
2.45052e-06
8.11426e-08
2.44204e-06
1.70896e-07
2.44606e-06
1.62154e-07
2.45076e-06
2.76593e-07
2.45058e-06
2.77651e-07
2.78902e-07
2.45993e-06
2.58147e-06
-8.85334e-08
2.58443e-06
1.86287e-08
2.58042e-06
-3.1544e-08
2.58048e-06
-3.9244e-08
2.58019e-06
8.41953e-08
2.58399e-06
7.14527e-08
2.58756e-06
1.46161e-07
2.58316e-06
-8.60722e-08
2.58234e-06
-2.58434e-08
2.57096e-06
-2.30169e-07
2.58361e-06
1.87294e-07
2.56297e-06
-2.37969e-07
2.5746e-06
8.5492e-08
2.55694e-06
-1.28007e-08
2.56722e-06
7.08603e-08
2.56037e-06
1.77749e-07
2.56182e-06
1.60708e-07
2.56874e-06
2.69665e-07
2.56807e-06
2.78325e-07
2.70072e-07
2.5769e-06
2.70485e-06
-8.55552e-08
2.70807e-06
1.54106e-08
2.70385e-06
-2.73218e-08
2.7039e-06
-3.93015e-08
2.70373e-06
8.43681e-08
2.70733e-06
6.78532e-08
2.71121e-06
1.42277e-07
2.70627e-06
-8.11278e-08
2.70613e-06
-2.57029e-08
2.69388e-06
-2.17915e-07
2.7071e-06
1.7407e-07
2.68585e-06
-2.16724e-07
2.69766e-06
7.36909e-08
2.68036e-06
4.49967e-09
2.68934e-06
6.18714e-08
2.68449e-06
1.826e-07
2.68344e-06
1.61759e-07
2.69202e-06
2.61091e-07
2.69164e-06
2.787e-07
2.62343e-07
2.69937e-06
2.83414e-06
-8.24294e-08
2.8376e-06
1.19546e-08
2.83321e-06
-2.29321e-08
2.83321e-06
-3.92982e-08
2.8332e-06
8.43714e-08
2.8365e-06
6.45524e-08
2.84083e-06
1.37949e-07
2.83527e-06
-7.5569e-08
2.8358e-06
-2.62269e-08
2.82273e-06
-2.04846e-07
2.83634e-06
1.60454e-07
2.81483e-06
-1.95206e-07
2.82642e-06
6.20965e-08
2.80989e-06
2.10269e-08
2.81719e-06
5.45733e-08
2.81456e-06
1.85236e-07
2.81138e-06
1.64938e-07
2.82085e-06
2.51617e-07
2.82147e-06
2.78083e-07
2.56009e-07
2.8278e-06
2.96963e-06
-7.91639e-08
2.9733e-06
8.28446e-09
2.9688e-06
-1.84325e-08
2.96867e-06
-3.91629e-08
2.96891e-06
8.41304e-08
2.9718e-06
6.16612e-08
2.97667e-06
1.33081e-07
2.97046e-06
-6.93621e-08
2.9716e-06
-2.73668e-08
2.95784e-06
-1.91092e-07
2.9716e-06
1.46699e-07
2.95019e-06
-1.73797e-07
2.96118e-06
5.11099e-08
2.9458e-06
3.64044e-08
2.95111e-06
4.92652e-08
2.95069e-06
1.8565e-07
2.94594e-06
1.69689e-07
2.95558e-06
2.41976e-07
2.95768e-06
2.75984e-07
2.51081e-07
2.96261e-06
3.11161e-06
-7.57701e-08
3.11547e-06
4.4308e-09
3.11093e-06
-1.38943e-08
3.11057e-06
-3.88077e-08
3.11115e-06
8.35548e-08
3.11352e-06
5.92886e-08
3.11899e-06
1.27614e-07
3.11215e-06
-6.25205e-08
3.1138e-06
-2.90175e-08
3.09957e-06
-1.76862e-07
3.11315e-06
1.33117e-07
3.09224e-06
-1.5289e-07
3.10223e-06
4.11181e-08
3.08831e-06
5.03259e-08
3.09146e-06
4.61163e-08
3.09309e-06
1.84023e-07
3.08739e-06
1.75392e-07
3.0966e-06
2.32766e-07
3.10043e-06
2.72145e-07
2.47347e-07
3.10417e-06
3.2604e-06
-7.22631e-08
3.2644e-06
4.33041e-10
3.25991e-06
-9.40567e-09
3.25923e-06
-3.81286e-08
3.26024e-06
8.25484e-08
3.262e-06
5.75295e-08
3.26808e-06
1.21529e-07
3.26068e-06
-5.5114e-08
3.26267e-06
-3.10087e-08
3.24824e-06
-1.62438e-07
3.2613e-06
1.20062e-07
3.24127e-06
-1.32864e-07
3.24995e-06
3.24457e-08
3.23767e-06
6.26049e-08
3.23865e-06
4.51335e-08
3.24201e-06
1.8066e-07
3.23595e-06
1.81453e-07
3.2443e-06
2.24421e-07
3.2499e-06
2.66545e-07
2.44414e-07
3.25283e-06
3.41633e-06
-6.86618e-08
3.42042e-06
-3.65894e-09
3.41609e-06
-5.07381e-09
3.41497e-06
-3.70079e-08
3.4165e-06
8.10217e-08
3.41757e-06
5.64509e-08
3.42425e-06
1.14857e-07
3.41641e-06
-4.72775e-08
3.41851e-06
-3.3106e-08
3.40421e-06
-1.48145e-07
3.4164e-06
1.07876e-07
3.39754e-06
-1.14006e-07
3.4047e-06
2.52877e-08
3.3941e-06
7.32055e-08
3.39305e-06
4.61846e-08
3.39782e-06
1.75889e-07
3.39189e-06
1.87377e-07
3.3991e-06
2.17219e-07
3.4063e-06
2.59339e-07
2.4181e-07
3.40891e-06
3.57974e-06
-6.49887e-08
3.58386e-06
-7.78417e-09
3.57981e-06
-1.02497e-09
3.57813e-06
-3.53193e-08
3.58024e-06
7.89026e-08
3.58062e-06
5.60764e-08
3.58778e-06
1.07694e-07
3.57972e-06
-3.92134e-08
3.58163e-06
-3.50193e-08
3.56782e-06
-1.34336e-07
3.57882e-06
9.68837e-08
3.5613e-06
-9.649e-08
3.5669e-06
1.9684e-08
3.55789e-06
8.22143e-08
3.55503e-06
4.9047e-08
3.56085e-06
1.70071e-07
3.55553e-06
1.92701e-07
3.5614e-06
2.11348e-07
3.56994e-06
2.50799e-07
2.39053e-07
3.57269e-06
3.75099e-06
-6.12697e-08
3.75507e-06
-1.18693e-08
3.75144e-06
2.61089e-09
3.74907e-06
-3.29508e-08
3.75182e-06
7.61503e-08
3.75152e-06
5.63765e-08
3.75902e-06
1.00198e-07
3.75098e-06
-3.11805e-08
3.7524e-06
-3.64395e-08
3.7394e-06
-1.21337e-07
3.74898e-06
8.73069e-08
3.73282e-06
-8.03248e-08
3.73696e-06
1.55391e-08
3.72939e-06
8.97835e-08
3.72498e-06
5.34542e-08
3.73147e-06
1.63586e-07
3.72717e-06
1.97005e-07
3.73163e-06
2.06881e-07
3.74112e-06
2.4131e-07
2.35696e-07
3.74448e-06
3.93045e-06
-5.75342e-08
3.93441e-06
-1.58286e-08
3.93131e-06
5.71039e-09
3.92819e-06
-2.98253e-08
3.93156e-06
7.27743e-08
3.93069e-06
5.72511e-08
3.93829e-06
9.26e-08
3.93059e-06
-2.348e-08
3.93122e-06
-3.70762e-08
3.91924e-06
-1.09357e-07
3.92739e-06
7.91623e-08
3.91239e-06
-6.53319e-08
3.91526e-06
1.26766e-08
3.90899e-06
9.60497e-08
3.90328e-06
5.9159e-08
3.91006e-06
1.56811e-07
3.90714e-06
1.99924e-07
3.91025e-06
2.03769e-07
3.92022e-06
2.31339e-07
2.31363e-07
3.92456e-06
4.11853e-06
-5.38141e-08
4.12227e-06
-1.95647e-08
4.11982e-06
8.15893e-09
4.1159e-06
-2.59108e-08
4.11983e-06
6.88467e-08
4.11855e-06
5.85282e-08
4.12597e-06
8.51875e-08
4.11891e-06
-1.64215e-08
4.11854e-06
-3.6706e-08
4.10762e-06
-9.84417e-08
4.11449e-06
7.22934e-08
4.10043e-06
-5.12684e-08
4.10216e-06
1.09475e-08
4.09711e-06
1.01099e-07
4.09035e-06
6.59136e-08
4.09704e-06
1.50127e-07
4.09576e-06
2.01203e-07
4.09772e-06
2.01803e-07
4.10765e-06
2.2141e-07
2.25792e-07
4.11322e-06
4.31563e-06
-5.01433e-08
4.31904e-06
-2.29702e-08
4.31734e-06
9.85934e-09
4.31266e-06
-2.12345e-08
4.317e-06
6.4505e-08
4.31556e-06
5.99729e-08
4.32246e-06
7.82817e-08
4.31632e-06
-1.0275e-08
4.31484e-06
-3.5234e-08
4.30486e-06
-8.8456e-08
4.31073e-06
6.64215e-08
4.29737e-06
-3.79105e-08
4.29804e-06
1.02786e-08
4.29416e-06
1.04986e-07
4.28664e-06
7.34292e-08
4.29286e-06
1.43907e-07
4.29333e-06
2.00728e-07
4.29452e-06
2.0062e-07
4.30387e-06
2.12059e-07
2.18888e-07
4.31077e-06
4.52219e-06
-4.65567e-08
4.52515e-06
-2.5931e-08
4.52427e-06
1.07415e-08
4.51892e-06
-1.58901e-08
4.52348e-06
5.99477e-08
4.52215e-06
6.13053e-08
4.52823e-06
7.2202e-08
4.52317e-06
-5.22018e-09
4.52065e-06
-3.27169e-08
4.51133e-06
-7.91281e-08
4.5165e-06
6.12482e-08
4.50374e-06
-2.5154e-08
4.50329e-06
1.07321e-08
4.50057e-06
1.07708e-07
4.49259e-06
8.14034e-08
4.49806e-06
1.38438e-07
4.50023e-06
1.98564e-07
4.50108e-06
1.99763e-07
4.50941e-06
2.03733e-07
2.10768e-07
4.51753e-06
4.73865e-06
-4.30879e-08
4.74105e-06
-2.83325e-08
4.74102e-06
1.07699e-08
4.73517e-06
-1.00427e-08
4.7397e-06
5.54237e-08
4.73876e-06
6.224e-08
4.74376e-06
6.72039e-08
4.73982e-06
-1.27937e-09
4.73649e-06
-2.93865e-08
4.7275e-06
-7.0136e-08
4.73216e-06
5.65798e-08
4.72004e-06
-1.30248e-08
4.71838e-06
1.23845e-08
4.71676e-06
1.09334e-07
4.70869e-06
8.94726e-08
4.7132e-06
1.33924e-07
4.71682e-06
1.94943e-07
4.71784e-06
1.98748e-07
4.72489e-06
1.96684e-07
2.01795e-07
4.73386e-06
4.96548e-06
-3.97682e-08
4.96721e-06
-3.00652e-08
4.96803e-06
9.94884e-09
4.96192e-06
-3.92756e-09
4.96612e-06
5.12213e-08
4.96584e-06
6.25186e-08
4.96961e-06
6.34389e-08
4.96664e-06
1.68505e-09
4.96284e-06
-2.55845e-08
4.9539e-06
-6.12008e-08
4.95811e-06
5.23778e-08
4.94675e-06
-1.66983e-09
4.94386e-06
1.5272e-08
4.94315e-06
1.10043e-07
4.93537e-06
9.72606e-08
4.93886e-06
1.3043e-07
4.9436e-06
1.902e-07
4.94512e-06
1.97233e-07
4.95096e-06
1.90844e-07
1.9256e-07
4.96019e-06
5.20317e-06
-3.66242e-08
5.20415e-06
-3.10389e-08
5.20576e-06
8.33008e-09
5.19968e-06
2.15844e-09
5.20325e-06
4.76552e-08
5.20382e-06
6.19401e-08
5.20636e-06
6.09014e-08
5.20406e-06
3.98768e-09
5.20018e-06
-2.17062e-08
5.19114e-06
-5.21615e-08
5.19474e-06
4.878e-08
5.18439e-06
8.67519e-09
5.1803e-06
1.93662e-08
5.18024e-06
1.10106e-07
5.1731e-06
1.04394e-07
5.17557e-06
1.27961e-07
5.18109e-06
1.84683e-07
5.18333e-06
1.94991e-07
5.18823e-06
1.85948e-07
1.83694e-07
5.19709e-06
5.45224e-06
-3.3675e-08
5.4524e-06
-3.11983e-08
5.45471e-06
6.02382e-09
5.44899e-06
7.87349e-09
5.45162e-06
4.50256e-08
5.45314e-06
6.04207e-08
5.45465e-06
5.93924e-08
5.45256e-06
6.07454e-09
5.44896e-06
-1.81046e-08
5.43981e-06
-4.30087e-08
5.4426e-06
4.59862e-08
5.43338e-06
1.78946e-08
5.42832e-06
2.44235e-08
5.42859e-06
1.09845e-07
5.42232e-06
1.10658e-07
5.42392e-06
1.26365e-07
5.42987e-06
1.78733e-07
5.4329e-06
1.9196e-07
5.43722e-06
1.81627e-07
1.75678e-07
5.44523e-06
5.71321e-06
-3.09297e-08
5.71256e-06
-3.0549e-08
5.71537e-06
3.21812e-09
5.71038e-06
1.28658e-08
5.71185e-06
4.35489e-08
5.71422e-06
5.80584e-08
5.71507e-06
5.85344e-08
5.71275e-06
8.39874e-09
5.7096e-06
-1.49508e-08
5.70051e-06
-3.39234e-08
5.70229e-06
4.42097e-08
5.69418e-06
2.59989e-08
5.68849e-06
3.01209e-08
5.68889e-06
1.0944e-07
5.68347e-06
1.1608e-07
5.68444e-06
1.25391e-07
5.69059e-06
1.72584e-07
5.69433e-06
1.88222e-07
5.69842e-06
1.77534e-07
1.6874e-07
5.70536e-06
5.98665e-06
-2.83864e-08
5.98527e-06
-2.91733e-08
5.9883e-06
1.9069e-10
5.98435e-06
1.68154e-08
5.98461e-06
4.32929e-08
5.98755e-06
5.51176e-08
5.98821e-06
5.78719e-08
5.9853e-06
1.13075e-08
5.98253e-06
-1.21786e-08
5.97385e-06
-2.52435e-08
5.97444e-06
4.36167e-08
5.9673e-06
3.31378e-08
5.96135e-06
3.60741e-08
5.96176e-06
1.09035e-07
5.95718e-06
1.2066e-07
5.95766e-06
1.24912e-07
5.96389e-06
1.66346e-07
5.96819e-06
1.8392e-07
5.97231e-06
1.73423e-07
1.62789e-07
5.97826e-06
6.27313e-06
-2.60308e-08
6.27117e-06
-2.72094e-08
6.27408e-06
-2.72376e-09
6.27142e-06
1.94801e-08
6.27058e-06
4.41275e-08
6.2737e-06
5.19978e-08
6.27457e-06
5.70037e-08
6.27096e-06
1.49147e-08
6.26829e-06
-9.5011e-09
6.26035e-06
-1.73043e-08
6.25983e-06
4.4133e-08
6.25333e-06
3.96431e-08
6.24741e-06
4.19881e-08
6.24784e-06
1.08607e-07
6.24408e-06
1.24422e-07
6.24416e-06
1.24834e-07
6.25038e-06
1.60125e-07
6.25512e-06
1.79175e-07
6.25939e-06
1.69153e-07
1.57527e-07
6.26465e-06
6.57328e-06
-2.38368e-08
6.57089e-06
-2.48262e-08
6.57334e-06
-5.17517e-09
6.57209e-06
2.07336e-08
6.57049e-06
4.57284e-08
6.57331e-06
4.9177e-08
6.57468e-06
5.56362e-08
6.57047e-06
1.91261e-08
6.56751e-06
-6.54002e-09
6.5605e-06
-1.02997e-08
6.55916e-06
4.54702e-08
6.55301e-06
4.58001e-08
6.54721e-06
4.77887e-08
6.54776e-06
1.08049e-07
6.54484e-06
1.27343e-07
6.54458e-06
1.25097e-07
6.55067e-06
1.54038e-07
6.5558e-06
1.74039e-07
6.56022e-06
1.64733e-07
1.52562e-07
6.56519e-06
6.88772e-06
-2.17684e-08
6.8851e-06
-2.22046e-08
6.88677e-06
-6.84548e-09
6.88691e-06
2.05933e-08
6.88502e-06
4.76211e-08
6.88709e-06
4.71023e-08
6.88904e-06
5.36924e-08
6.88452e-06
2.36393e-08
6.88092e-06
-2.94066e-09
6.87485e-06
-4.2221e-09
6.87309e-06
4.7222e-08
6.8671e-06
5.17955e-08
6.86141e-06
5.34741e-08
6.86212e-06
1.07346e-07
6.86011e-06
1.29346e-07
6.8596e-06
1.25616e-07
6.86544e-06
1.48196e-07
6.87096e-06
1.68517e-07
6.87534e-06
1.60348e-07
1.47513e-07
6.88039e-06
7.21715e-06
-1.97833e-08
7.21447e-06
-1.95224e-08
7.21513e-06
-7.50398e-09
7.21648e-06
1.92407e-08
7.21486e-06
4.92416e-08
7.21582e-06
4.61417e-08
7.21823e-06
5.12864e-08
7.21384e-06
2.80212e-08
7.20936e-06
1.54081e-09
7.204e-06
1.14268e-09
7.20222e-06
4.89989e-08
7.19647e-06
5.75434e-08
7.19072e-06
5.92289e-08
7.19156e-06
1.06506e-07
7.19055e-06
1.30356e-07
7.1899e-06
1.2626e-07
7.19538e-06
1.42722e-07
7.20134e-06
1.62552e-07
7.20547e-06
1.56224e-07
1.42318e-07
7.21066e-06
7.56228e-06
-1.78388e-08
7.5597e-06
-1.69456e-08
7.55924e-06
-7.04176e-09
7.56148e-06
1.70059e-08
7.56066e-06
5.00628e-08
7.56037e-06
4.64257e-08
7.56287e-06
4.87834e-08
7.55906e-06
3.18335e-08
7.55371e-06
6.89412e-09
7.54866e-06
6.18715e-09
7.54718e-06
5.04819e-08
7.54185e-06
6.28774e-08
7.536e-06
6.50807e-08
7.53676e-06
1.05746e-07
7.53682e-06
1.30291e-07
7.53622e-06
1.26863e-07
7.54119e-06
1.37747e-07
7.54761e-06
1.56137e-07
7.55156e-06
1.52272e-07
1.3742e-07
7.55646e-06
7.92387e-06
-1.58967e-08
7.92153e-06
-1.46069e-08
7.92003e-06
-5.53793e-09
7.92265e-06
1.4378e-08
7.923e-06
4.97224e-08
7.92165e-06
4.7767e-08
7.92373e-06
4.67047e-08
7.92077e-06
3.47971e-08
7.91483e-06
1.2834e-08
7.90967e-06
1.13492e-08
7.90859e-06
5.1556e-08
7.90394e-06
6.75351e-08
7.89812e-06
7.0896e-08
7.89854e-06
1.0533e-07
7.89951e-06
1.29318e-07
7.89936e-06
1.27016e-07
7.90364e-06
1.3346e-07
7.91037e-06
1.49409e-07
7.91456e-06
1.4808e-07
1.33302e-07
7.91868e-06
8.30271e-06
-1.393e-08
8.30071e-06
-1.2602e-08
8.29836e-06
-3.18914e-09
8.30079e-06
1.19473e-08
8.3025e-06
4.80146e-08
8.30056e-06
4.97107e-08
8.30164e-06
4.56172e-08
8.2996e-06
3.68448e-08
8.29353e-06
1.8901e-08
8.28797e-06
1.69124e-08
8.28708e-06
5.24382e-08
8.28346e-06
7.1157e-08
8.27793e-06
7.64315e-08
8.27781e-06
1.05444e-07
8.27939e-06
1.27742e-07
8.27993e-06
1.26471e-07
8.28365e-06
1.29739e-07
8.29036e-06
1.42701e-07
8.29506e-06
1.43384e-07
1.29837e-07
8.29852e-06
8.69966e-06
-1.19248e-08
8.69805e-06
-1.09913e-08
8.69509e-06
-2.32837e-10
8.69678e-06
1.02572e-08
8.69982e-06
4.49769e-08
8.69792e-06
5.16103e-08
8.69764e-06
4.58964e-08
8.69622e-06
3.82683e-08
8.69057e-06
2.45472e-08
8.68457e-06
2.29157e-08
8.68348e-06
5.35204e-08
8.68109e-06
7.35533e-08
8.67617e-06
8.13436e-08
8.67555e-06
1.06067e-07
8.67738e-06
1.25911e-07
8.6786e-06
1.25258e-07
8.68211e-06
1.26221e-07
8.6884e-06
1.36413e-07
8.69369e-06
1.38097e-07
1.26615e-07
8.69691e-06
9.11558e-06
-9.88369e-09
9.11437e-06
-9.78002e-09
9.11108e-06
3.05808e-09
9.11163e-06
9.70475e-09
9.11571e-06
4.08939e-08
9.11449e-06
5.28295e-08
9.11282e-06
4.75709e-08
9.11145e-06
3.96339e-08
9.10661e-06
2.93844e-08
9.1005e-06
2.90296e-08
9.09887e-06
5.51499e-08
9.09739e-06
7.50396e-08
9.09357e-06
8.51572e-08
9.09276e-06
1.06881e-07
9.0945e-06
1.24173e-07
9.09609e-06
1.23665e-07
9.09969e-06
1.22617e-07
9.10556e-06
1.30548e-07
9.11117e-06
1.32485e-07
1.23209e-07
9.11458e-06
9.5514e-06
-7.82864e-09
9.55054e-06
-8.91232e-09
9.54721e-06
6.38499e-09
9.54642e-06
1.04959e-08
9.55106e-06
3.62558e-08
9.55102e-06
5.28651e-08
9.54824e-06
5.03509e-08
9.54631e-06
4.15688e-08
9.54244e-06
3.32493e-08
9.53661e-06
3.4862e-08
9.53437e-06
5.7393e-08
9.53326e-06
7.61463e-08
9.53082e-06
8.75962e-08
9.53023e-06
1.07467e-07
9.53172e-06
1.22688e-07
9.53353e-06
1.2185e-07
9.53709e-06
1.19064e-07
9.54279e-06
1.24847e-07
9.54832e-06
1.26953e-07
1.19271e-07
9.55226e-06
1.00081e-05
-5.80224e-09
1.00075e-05
-8.26259e-09
1.00044e-05
9.42445e-09
1.00023e-05
1.26482e-08
1.00068e-05
3.17131e-08
1.00083e-05
5.14135e-08
1.00049e-05
5.36677e-08
1.00019e-05
4.45663e-08
9.99879e-06
3.64081e-08
9.99385e-06
3.97993e-08
9.99106e-06
6.01869e-08
9.98992e-06
7.72813e-08
9.98863e-06
8.88923e-08
9.98869e-06
1.07406e-07
9.99016e-06
1.21216e-07
9.99189e-06
1.20118e-07
9.99528e-06
1.15672e-07
1.00009e-05
1.19228e-07
1.00062e-05
1.21648e-07
1.14791e-07
1.00107e-05
1.04867e-05
-3.8651e-09
1.04861e-05
-7.67848e-09
1.04836e-05
1.19082e-08
1.04803e-05
1.60268e-08
1.0484e-05
2.79219e-08
1.0487e-05
4.84595e-08
1.04839e-05
5.67576e-08
1.04796e-05
4.8858e-08
1.04767e-05
3.93355e-08
1.0473e-05
4.35354e-08
1.04701e-05
6.30749e-08
1.04686e-05
7.87647e-08
1.04679e-05
8.95339e-08
1.04689e-05
1.06467e-07
1.04707e-05
1.19387e-07
1.04723e-05
1.18504e-07
1.04753e-05
1.12657e-07
1.04809e-05
1.1366e-07
1.04861e-05
1.1645e-07
1.10285e-07
1.04906e-05
1.09882e-05
-2.09327e-09
1.09875e-05
-6.96882e-09
1.09858e-05
1.36146e-08
1.09815e-05
2.03344e-08
1.0984e-05
2.54713e-08
1.09881e-05
4.42914e-08
1.0986e-05
5.88539e-08
1.09807e-05
5.42525e-08
1.09773e-05
4.27283e-08
1.09747e-05
4.60638e-08
1.09725e-05
6.53514e-08
1.09706e-05
8.0635e-08
1.097e-05
9.01273e-08
1.09717e-05
1.04765e-07
1.09742e-05
1.16904e-07
1.0976e-05
1.16709e-07
1.09784e-05
1.10207e-07
1.09836e-05
1.08435e-07
1.09891e-05
1.10962e-07
1.06212e-07
1.09932e-05
1.15138e-05
-5.75576e-10
1.15128e-05
-5.93948e-09
1.1512e-05
1.44211e-08
1.15071e-05
2.52028e-08
1.15079e-05
2.47073e-08
1.15128e-05
3.94043e-08
1.15122e-05
5.94357e-08
1.15062e-05
6.02331e-08
1.15018e-05
4.71809e-08
1.15002e-05
4.76508e-08
1.14991e-05
6.64849e-08
1.14971e-05
8.25998e-08
1.14962e-05
9.10319e-08
1.14982e-05
1.02745e-07
1.15014e-05
1.13684e-07
1.15038e-05
1.14311e-07
1.15058e-05
1.08237e-07
1.15103e-05
1.03965e-07
1.1516e-05
1.05234e-07
1.02335e-07
1.15199e-05
1.20646e-05
5.99323e-10
1.20631e-05
-4.40828e-09
1.20632e-05
1.43397e-08
1.20583e-05
3.01246e-08
1.20572e-05
2.58265e-08
1.20621e-05
3.44152e-08
1.20633e-05
5.83268e-08
1.20575e-05
6.59648e-08
1.20518e-05
5.28968e-08
1.20504e-05
4.90816e-08
1.20506e-05
6.62161e-08
1.20493e-05
8.39363e-08
1.2048e-05
9.23108e-08
1.20497e-05
1.01082e-07
1.20535e-05
1.09878e-07
1.20568e-05
1.11046e-07
1.20588e-05
1.06199e-07
1.20621e-05
1.00616e-07
1.20677e-05
9.96397e-08
9.83531e-08
1.20717e-05
1.26418e-05
1.3592e-09
1.26397e-05
-2.24517e-09
1.26405e-05
1.34922e-08
1.26361e-05
3.45896e-08
1.26331e-05
2.87577e-08
1.26374e-05
3.00981e-08
1.26403e-05
5.548e-08
1.26355e-05
7.07233e-08
1.26288e-05
5.96709e-08
1.26267e-05
5.11588e-08
1.26282e-05
6.47289e-08
1.26282e-05
8.39141e-08
1.26267e-05
9.37519e-08
1.26277e-05
1.00082e-07
1.26316e-05
1.06018e-07
1.26357e-05
1.06969e-07
1.26385e-05
1.03417e-07
1.26408e-05
9.82803e-08
1.26457e-05
9.47166e-08
9.41484e-08
1.26499e-05
1.32466e-05
1.65256e-09
1.32438e-05
6.05511e-10
1.32452e-05
1.21028e-08
1.32416e-05
3.81198e-08
1.32371e-05
3.32675e-08
1.32401e-05
2.7099e-08
1.32444e-05
5.11902e-08
1.32413e-05
7.38027e-08
1.32339e-05
6.70835e-08
1.32307e-05
5.44216e-08
1.32328e-05
6.26294e-08
1.32345e-05
8.21854e-08
1.32336e-05
9.46768e-08
1.32339e-05
9.97472e-08
1.32371e-05
1.0283e-07
1.32417e-05
1.02379e-07
1.32456e-05
9.95386e-08
1.32478e-05
9.60918e-08
1.32513e-05
9.11389e-08
8.95928e-08
1.32559e-05
1.38803e-05
1.47141e-09
1.38769e-05
4.08299e-09
1.38784e-05
1.05427e-08
1.38763e-05
4.02724e-08
1.38706e-05
3.89041e-08
1.38717e-05
2.60153e-08
1.3877e-05
4.59043e-08
1.3876e-05
7.4792e-08
1.38686e-05
7.44563e-08
1.38641e-05
5.8999e-08
1.38659e-05
6.07856e-08
1.38692e-05
7.88861e-08
1.38696e-05
9.42637e-08
1.38695e-05
9.99039e-08
1.38718e-05
1.0054e-07
1.38762e-05
9.79738e-08
1.38809e-05
9.48174e-08
1.3884e-05
9.29575e-08
1.38864e-05
8.87666e-08
8.52618e-08
1.38907e-05
1.45443e-05
8.55233e-10
1.45403e-05
8.02028e-09
1.45417e-05
9.20429e-09
1.45411e-05
4.0834e-08
1.4535e-05
4.50622e-08
1.45339e-05
2.71107e-08
1.45394e-05
4.03243e-08
1.45407e-05
7.3557e-08
1.45342e-05
8.09491e-08
1.45284e-05
6.47612e-08
1.45292e-05
5.99961e-08
1.45336e-05
7.44907e-08
1.45358e-05
9.207e-08
1.45358e-05
9.99388e-08
1.45372e-05
9.9123e-08
1.45408e-05
9.43927e-08
1.45457e-05
8.98456e-08
1.45502e-05
8.85478e-08
1.45524e-05
8.65034e-08
8.17684e-08
1.45559e-05
1.52398e-05
-1.08173e-10
1.52357e-05
1.2143e-08
1.52364e-05
8.50927e-09
1.52375e-05
3.97893e-08
1.52315e-05
5.10257e-08
1.52283e-05
3.03458e-08
1.52333e-05
3.53174e-08
1.52366e-05
7.02236e-08
1.52318e-05
8.5737e-08
1.52252e-05
7.13738e-08
1.52245e-05
6.06772e-08
1.52293e-05
6.97456e-08
1.52332e-05
8.81696e-08
1.52342e-05
9.89464e-08
1.52348e-05
9.84608e-08
1.52374e-05
9.17653e-08
1.52419e-05
8.53821e-08
1.52472e-05
8.32913e-08
1.52505e-05
8.32223e-08
7.91042e-08
1.52531e-05
1.59685e-05
-1.2795e-09
1.59646e-05
1.60823e-08
1.59642e-05
8.82833e-09
1.59667e-05
3.73784e-08
1.59617e-05
5.6009e-08
1.59565e-05
3.54765e-08
1.59602e-05
3.16797e-08
1.59652e-05
6.51613e-08
1.59628e-05
8.82107e-08
1.59559e-05
7.82547e-08
1.59537e-05
6.28936e-08
1.59579e-05
6.55341e-08
1.59631e-05
8.2917e-08
1.59657e-05
9.6378e-08
1.59662e-05
9.79865e-08
1.59679e-05
9.00254e-08
1.59714e-05
8.1865e-08
1.59768e-05
7.7937e-08
1.59813e-05
7.87016e-08
7.65011e-08
1.59839e-05
1.67318e-05
-2.49744e-09
1.67284e-05
1.94915e-08
1.67269e-05
1.03638e-08
1.67302e-05
3.40321e-08
1.67269e-05
5.93509e-08
1.67204e-05
4.19405e-08
1.6722e-05
3.01034e-08
1.67282e-05
5.8947e-08
1.67283e-05
8.81278e-08
1.6722e-05
8.4548e-08
1.67184e-05
6.64748e-08
1.67213e-05
6.26139e-08
1.67274e-05
7.68232e-08
1.67316e-05
9.21913e-08
1.67328e-05
9.68046e-08
1.67337e-05
8.91359e-08
1.67363e-05
7.92349e-08
1.67409e-05
7.33484e-08
1.67463e-05
7.33091e-08
7.319e-08
1.67496e-05
1.75314e-05
-3.58692e-09
1.75289e-05
2.20629e-08
1.75262e-05
1.30895e-08
1.75298e-05
3.03424e-08
1.75285e-05
6.06719e-08
1.75215e-05
4.89748e-08
1.75207e-05
3.0865e-08
1.75272e-05
5.24256e-08
1.75298e-05
8.55498e-08
1.75251e-05
8.93094e-08
1.75204e-05
7.11282e-08
1.75217e-05
6.13323e-08
1.75278e-05
7.06759e-08
1.75334e-05
8.66421e-08
1.7536e-05
9.42258e-08
1.75364e-05
8.86915e-08
1.75383e-05
7.73471e-08
1.75418e-05
6.98784e-08
1.75472e-05
6.7865e-08
6.89611e-08
1.75514e-05
1.83692e-05
-4.39714e-09
1.83676e-05
2.35902e-08
1.83639e-05
1.67965e-08
1.83673e-05
2.69671e-08
1.83681e-05
5.98665e-08
1.83614e-05
5.56906e-08
1.83584e-05
3.38572e-08
1.83643e-05
4.65632e-08
1.8369e-05
8.08214e-08
1.83665e-05
9.1805e-08
1.83613e-05
7.62758e-08
1.8361e-05
6.1668e-08
1.83663e-05
6.53398e-08
1.83728e-05
8.01405e-08
1.8377e-05
9.00397e-08
1.83779e-05
8.78629e-08
1.83789e-05
7.62894e-08
1.83815e-05
6.72662e-08
1.8386e-05
6.33448e-08
6.39368e-08
1.83911e-05
1.92468e-05
-4.8107e-09
1.92464e-05
2.40027e-08
1.92421e-05
2.10749e-08
1.92446e-05
2.44779e-08
1.92472e-05
5.72476e-08
1.92417e-05
6.11835e-08
1.9237e-05
3.85801e-08
1.92413e-05
4.22946e-08
1.92476e-05
7.44832e-08
1.92477e-05
9.17008e-08