/*--------------------------------*- C++ -*----------------------------------*\
| =========                 |                                                 |
| \\      /  F ield         | OpenFOAM: The Open Source CFD Toolbox           |
|  \\    /   O peration     | Version:  2106                                  |
|   \\  /    A nd           | Website:  www.openfoam.com                      |
|    \\/     M anipulation  |                                                 |
\*---------------------------------------------------------------------------*/
FoamFile
{
    version     2.0;
    format      ascii;
    arch        "LSB;label=32;scalar=64";
    class       surfaceScalarField;
    location    "0.455";
    object      phi;
}
// * * * * * * * * * * * * * * * * * * * * * * * * * * * * * * * * * * * * * //

dimensions      [0 3 -1 0 0 0 0];

oriented        oriented;

internalField   nonuniform List<scalar> 
19000
(
1.17362e-06
-3.01095e-07
1.16841e-06
6.8934e-07
1.17425e-06
-9.12881e-07
1.19636e-06
2.21299e-07
1.21638e-06
-9.31173e-07
1.1938e-06
2.85387e-07
1.18142e-06
6.87008e-08
1.17719e-06
4.28613e-07
1.18664e-06
4.21981e-08
1.18609e-06
-9.65922e-08
1.20254e-06
-1.14418e-07
1.18239e-06
-3.41457e-07
1.21246e-06
-9.2772e-08
1.20211e-06
-2.55204e-07
1.22154e-06
-2.69277e-07
1.22669e-06
-1.25724e-07
1.23361e-06
-7.46867e-08
1.22788e-06
-6.27918e-10
1.22807e-06
4.56012e-08
8.58366e-08
1.20009e-06
1.23057e-06
-3.07406e-07
1.22976e-06
6.90155e-07
1.23555e-06
-9.1867e-07
1.25907e-06
1.97771e-07
1.28097e-06
-9.5307e-07
1.2603e-06
3.06058e-07
1.24473e-06
8.42678e-08
1.24608e-06
4.27267e-07
1.24827e-06
4.0004e-08
1.25105e-06
-9.93736e-08
1.25882e-06
-1.22187e-07
1.24454e-06
-3.27176e-07
1.26409e-06
-1.12317e-07
1.26554e-06
-2.56659e-07
1.27387e-06
-2.7761e-07
1.29423e-06
-1.46079e-07
1.28484e-06
-6.53023e-08
1.3011e-06
-1.68852e-08
1.27518e-06
7.15278e-08
7.52768e-08
1.28574e-06
1.28878e-06
-3.13408e-07
1.29263e-06
6.86311e-07
1.29583e-06
-9.21871e-07
1.32236e-06
1.71235e-07
1.34141e-06
-9.72112e-07
1.33327e-06
3.14196e-07
1.3126e-06
1.04935e-07
1.32004e-06
4.19828e-07
1.31282e-06
4.72276e-08
1.31677e-06
-1.0333e-07
1.31455e-06
-1.19962e-07
1.30771e-06
-3.2034e-07
1.31729e-06
-1.21892e-07
1.32753e-06
-2.66896e-07
1.32826e-06
-2.78347e-07
1.35248e-06
-1.70298e-07
1.34715e-06
-5.99697e-08
1.35868e-06
-2.84175e-08
1.34756e-06
8.26531e-08
8.51111e-08
1.33772e-06
1.34897e-06
-3.18276e-07
1.35472e-06
6.80557e-07
1.35438e-06
-9.21531e-07
1.38171e-06
1.43914e-07
1.39587e-06
-9.86271e-07
1.40215e-06
3.07907e-07
1.38187e-06
1.25223e-07
1.39063e-06
4.11062e-07
1.37739e-06
6.04694e-08
1.37779e-06
-1.03727e-07
1.36947e-06
-1.11647e-07
1.36591e-06
-3.16775e-07
1.37143e-06
-1.27412e-07
1.38185e-06
-2.77314e-07
1.38383e-06
-2.80328e-07
1.40464e-06
-1.91113e-07
1.40997e-06
-6.52978e-08
1.41758e-06
-3.60232e-08
1.41625e-06
8.39774e-08
9.69675e-08
1.4044e-06
1.41179e-06
-3.2171e-07
1.41656e-06
6.75782e-07
1.41265e-06
-9.17621e-07
1.43764e-06
1.18923e-07
1.44646e-06
-9.95084e-07
1.46414e-06
2.90224e-07
1.45017e-06
1.39198e-07
1.45723e-06
4.04e-07
1.44175e-06
7.59444e-08
1.4368e-06
-9.87789e-08
1.42571e-06
-1.0055e-07
1.42247e-06
-3.13537e-07
1.42649e-06
-1.31432e-07
1.43395e-06
-2.84773e-07
1.43835e-06
-2.84728e-07
1.45665e-06
-2.09417e-07
1.46779e-06
-7.64368e-08
1.4766e-06
-4.48305e-08
1.48016e-06
8.04122e-08
1.056e-07
1.47153e-06
1.47797e-06
-3.24005e-07
1.48013e-06
6.73627e-07
1.47335e-06
-9.10846e-07
1.49368e-06
9.85941e-08
1.49772e-06
-9.99122e-07
1.52228e-06
2.65666e-07
1.51717e-06
1.44309e-07
1.5226e-06
3.98563e-07
1.50705e-06
9.15007e-08
1.49812e-06
-8.98487e-08
1.48585e-06
-8.82832e-08
1.48205e-06
-3.09734e-07
1.48466e-06
-1.34044e-07
1.48914e-06
-2.89257e-07
1.49386e-06
-2.89442e-07
1.51026e-06
-2.25823e-07
1.52344e-06
-8.96165e-08
1.53356e-06
-5.49489e-08
1.54156e-06
7.24099e-08
1.11111e-07
1.53605e-06
1.54788e-06
-3.25666e-07
1.54766e-06
6.73842e-07
1.5389e-06
-9.02088e-07
1.55383e-06
8.36686e-08
1.55376e-06
-9.99052e-07
1.58126e-06
2.38167e-07
1.58383e-06
1.41736e-07
1.58913e-06
3.93263e-07
1.57452e-06
1.0611e-07
1.56402e-06
-7.93464e-08
1.55153e-06
-7.57951e-08
1.54711e-06
-3.05313e-07
1.54815e-06
-1.3508e-07
1.55002e-06
-2.91132e-07
1.55334e-06
-2.92762e-07
1.56704e-06
-2.39521e-07
1.58046e-06
-1.03037e-07
1.59028e-06
-6.47704e-08
1.60185e-06
6.08427e-08
1.13781e-07
1.59918e-06
1.62144e-06
-3.26975e-07
1.6205e-06
6.74779e-07
1.61043e-06
-8.92013e-07
1.62056e-06
7.35324e-08
1.61675e-06
-9.95245e-07
1.64431e-06
2.10614e-07
1.65151e-06
1.34529e-07
1.65784e-06
3.86937e-07
1.64486e-06
1.19091e-07
1.63485e-06
-6.93346e-08
1.62296e-06
-6.39105e-08
1.6181e-06
-3.00449e-07
1.61773e-06
-1.34713e-07
1.61722e-06
-2.90616e-07
1.6184e-06
-2.93946e-07
1.62838e-06
-2.49497e-07
1.64093e-06
-1.15594e-07
1.64907e-06
-7.29058e-08
1.66259e-06
4.73173e-08
1.14069e-07
1.66231e-06
1.69845e-06
-3.27854e-07
1.69873e-06
6.74499e-07
1.6877e-06
-8.8098e-07
1.69433e-06
6.69061e-08
1.68696e-06
-9.87876e-07
1.71256e-06
1.85013e-07
1.72134e-06
1.25748e-07
1.7291e-06
3.79177e-07
1.71827e-06
1.29924e-07
1.71009e-06
-6.11586e-08
1.69951e-06
-5.33264e-08
1.69443e-06
-2.95369e-07
1.69311e-06
-1.33399e-07
1.6905e-06
-2.87999e-07
1.68946e-06
-2.92907e-07
1.69508e-06
-2.55118e-07
1.70597e-06
-1.26481e-07
1.71147e-06
-7.84053e-08
1.7252e-06
3.35786e-08
1.12689e-07
1.72658e-06
1.77889e-06
-3.28027e-07
1.78172e-06
6.71669e-07
1.76985e-06
-8.6911e-07
1.77433e-06
6.24321e-08
1.76356e-06
-9.77108e-07
1.78596e-06
1.62609e-07
1.79416e-06
1.17552e-07
1.80333e-06
3.70007e-07
1.79493e-06
1.38323e-07
1.78925e-06
-5.54731e-08
1.78043e-06
-4.45127e-08
1.77532e-06
-2.90258e-07
1.77362e-06
-1.31701e-07
1.76938e-06
-2.83758e-07
1.76642e-06
-2.89949e-07
1.76755e-06
-2.56244e-07
1.77626e-06
-1.35187e-07
1.77858e-06
-8.07315e-08
1.79092e-06
2.12434e-08
1.10427e-07
1.79318e-06
1.86297e-06
-3.27249e-07
1.8688e-06
6.65841e-07
1.85607e-06
-8.56382e-07
1.85953e-06
5.89756e-08
1.84559e-06
-9.63169e-07
1.86431e-06
1.43884e-07
1.87081e-06
1.11051e-07
1.88128e-06
3.59539e-07
1.87531e-06
1.44296e-07
1.8722e-06
-5.2367e-08
1.86533e-06
-3.76354e-08
1.86028e-06
-2.8521e-07
1.85869e-06
-1.30115e-07
1.85337e-06
-2.78435e-07
1.84902e-06
-2.85597e-07
1.84596e-06
-2.53191e-07
1.85234e-06
-1.41563e-07
1.85142e-06
-7.98114e-08
1.86103e-06
1.16283e-08
1.0792e-07
1.86354e-06
1.95102e-06
-3.25431e-07
1.95963e-06
6.57233e-07
1.94595e-06
-8.42705e-07
1.94921e-06
5.57139e-08
1.93241e-06
-9.46368e-07
1.9477e-06
1.28594e-07
1.9522e-06
1.06549e-07
1.9639e-06
3.4784e-07
1.96007e-06
1.48133e-07
1.95924e-06
-5.15375e-08
1.95416e-06
-3.25528e-08
1.94917e-06
-2.80224e-07
1.94803e-06
-1.28973e-07
1.94204e-06
-2.72444e-07
1.93692e-06
-2.80477e-07
1.93034e-06
-2.46614e-07
1.93456e-06
-1.45783e-07
1.93083e-06
-7.6077e-08
1.93693e-06
5.52689e-09
1.05517e-07
1.93933e-06
2.04339e-06
-3.22633e-07
2.05427e-06
6.46352e-07
2.03955e-06
-8.27979e-07
2.04314e-06
5.21203e-08
2.02384e-06
-9.27066e-07
2.03648e-06
1.15953e-07
2.03915e-06
1.03879e-07
2.05204e-06
3.34948e-07
2.04984e-06
1.5033e-07
2.05079e-06
-5.24797e-08
2.04715e-06
-2.89111e-08
2.04213e-06
-2.75209e-07
2.0416e-06
-1.28442e-07
2.03511e-06
-2.65958e-07
2.02981e-06
-2.75171e-07
2.02055e-06
-2.37355e-07
2.02296e-06
-1.48196e-07
2.01726e-06
-7.03763e-08
2.01969e-06
3.09585e-09
1.03266e-07
2.02194e-06
2.14036e-06
-3.1899e-07
2.15301e-06
6.33695e-07
2.13716e-06
-8.12125e-07
2.14138e-06
4.79014e-08
2.11995e-06
-9.05634e-07
2.13098e-06
1.04922e-07
2.13215e-06
1.02705e-07
2.14618e-06
3.20922e-07
2.14505e-06
1.51457e-07
2.14722e-06
-5.465e-08
2.14461e-06
-2.63025e-08
2.13941e-06
-2.7001e-07
2.13956e-06
-1.28585e-07
2.13253e-06
-2.58931e-07
2.12746e-06
-2.70102e-07
2.11639e-06
-2.2628e-07
2.11731e-06
-1.4912e-07
2.11069e-06
-6.37569e-08
2.10984e-06
3.94696e-09
1.01032e-07
2.11207e-06
2.24214e-06
-3.14636e-07
2.25621e-06
6.19618e-07
2.23919e-06
-7.95099e-07
2.24417e-06
4.29183e-08
2.22093e-06
-8.82394e-07
2.23134e-06
9.45134e-08
2.23133e-06
1.02708e-07
2.2464e-06
3.05853e-07
2.24584e-06
1.52022e-07
2.24876e-06
-5.75687e-08
2.24686e-06
-2.44068e-08
2.24129e-06
-2.64441e-07
2.24214e-06
-1.29431e-07
2.23442e-06
-2.51211e-07
2.22979e-06
-2.65471e-07
2.21769e-06
-2.14178e-07
2.21726e-06
-1.48692e-07
2.21071e-06
-5.72075e-08
2.2073e-06
7.36011e-09
9.86853e-08
2.20964e-06
2.34891e-06
-3.09669e-07
2.36421e-06
6.04312e-07
2.34599e-06
-7.76873e-07
2.35179e-06
3.71168e-08
2.32697e-06
-8.57577e-07
2.33751e-06
8.39787e-08
2.33656e-06
1.03661e-07
2.35255e-06
2.89858e-07
2.3522e-06
1.52373e-07
2.35549e-06
-6.08571e-08
2.35414e-06
-2.3062e-08
2.34801e-06
-2.58309e-07
2.34959e-06
-1.31006e-07
2.34105e-06
-2.42678e-07
2.33683e-06
-2.61252e-07
2.32438e-06
-2.01719e-07
2.32254e-06
-1.46859e-07
2.31679e-06
-5.14586e-08
2.31163e-06
1.25232e-08
9.62283e-08
2.31409e-06
2.46086e-06
-3.04135e-07
2.47732e-06
5.87851e-07
2.45788e-06
-7.57429e-07
2.46452e-06
3.04791e-08
2.43827e-06
-8.31331e-07
2.44939e-06
7.28595e-08
2.44763e-06
1.05422e-07
2.46442e-06
2.73063e-07
2.46412e-06
1.52672e-07
2.46749e-06
-6.42246e-08
2.46668e-06
-2.22562e-08
2.45982e-06
-2.51441e-07
2.46213e-06
-1.33317e-07
2.45277e-06
-2.33321e-07
2.44876e-06
-2.57244e-07
2.43649e-06
-1.89451e-07
2.43307e-06
-1.4344e-07
2.42855e-06
-4.69293e-08
2.42239e-06
1.86741e-08
9.38235e-08
2.4248e-06
2.57821e-06
-2.98047e-07
2.59581e-06
5.70242e-07
2.57513e-06
-7.36745e-07
2.58261e-06
2.30012e-08
2.55502e-06
-8.03737e-07
2.56694e-06
6.09373e-08
2.56447e-06
1.07894e-07
2.58193e-06
2.55602e-07
2.58167e-06
1.5293e-07
2.58488e-06
-6.74353e-08
2.5847e-06
-2.20803e-08
2.57696e-06
-2.43702e-07
2.57997e-06
-1.36326e-07
2.56991e-06
-2.23261e-07
2.56581e-06
-2.53139e-07
2.55415e-06
-1.77797e-07
2.54904e-06
-1.38328e-07
2.54576e-06
-4.36421e-08
2.53933e-06
2.51003e-08
9.17399e-08
2.54141e-06
2.70118e-06
-2.91397e-07
2.71995e-06
5.51469e-07
2.69801e-06
-7.14805e-07
2.70633e-06
1.46877e-08
2.67744e-06
-7.74851e-07
2.69023e-06
4.81509e-08
2.68713e-06
1.1099e-07
2.70511e-06
2.37619e-07
2.705e-06
1.53043e-07
2.70784e-06
-7.02735e-08
2.70843e-06
-2.26755e-08
2.69973e-06
-2.35003e-07
2.70334e-06
-1.39928e-07
2.6928e-06
-2.12729e-07
2.68825e-06
-2.48584e-07
2.67752e-06
-1.67068e-07
2.67079e-06
-1.31602e-07
2.66844e-06
-4.12883e-08
2.66237e-06
3.11721e-08
9.023e-08
2.66388e-06
2.83004e-06
-2.84171e-07
2.85e-06
5.31512e-07
2.8268e-06
-6.91603e-07
2.83593e-06
5.55585e-09
2.80581e-06
-7.4473e-07
2.81943e-06
3.45324e-08
2.81581e-06
1.14603e-07
2.83414e-06
2.19287e-07
2.83434e-06
1.52844e-07
2.8366e-06
-7.25283e-08
2.8381e-06
-2.41793e-08
2.82844e-06
-2.25335e-07
2.83243e-06
-1.43927e-07
2.82174e-06
-2.02033e-07
2.81641e-06
-2.43252e-07
2.80677e-06
-1.57432e-07
2.79868e-06
-1.23517e-07
2.79681e-06
-3.94158e-08
2.79158e-06
3.64086e-08
8.94177e-08
2.79239e-06
2.96508e-06
-2.76353e-07
2.98623e-06
5.10364e-07
2.96178e-06
-6.67151e-07
2.97169e-06
-4.35879e-09
2.94041e-06
-7.13448e-07
2.95477e-06
2.01709e-08
2.95077e-06
1.18598e-07
2.96925e-06
2.00807e-07
2.96998e-06
1.52123e-07
2.97144e-06
-7.39936e-08
2.97395e-06
-2.66884e-08
2.9634e-06
-2.14785e-07
2.96752e-06
-1.48047e-07
2.95698e-06
-1.9149e-07
2.95061e-06
-2.36888e-07
2.9421e-06
-1.48917e-07
2.93301e-06
-1.14435e-07
2.9312e-06
-3.76052e-08
2.92708e-06
4.05303e-08
8.92523e-08
2.92725e-06
3.10659e-06
-2.67934e-07
3.12892e-06
4.88028e-07
3.10326e-06
-6.41485e-07
3.11389e-06
-1.49957e-08
3.08155e-06
-6.81105e-07
3.09652e-06
5.19915e-09
3.09232e-06
1.22799e-07
3.11071e-06
1.82418e-07
3.11219e-06
1.50647e-07
3.11268e-06
-7.4486e-08
3.11621e-06
-3.02168e-08
3.10497e-06
-2.0355e-07
3.10887e-06
-1.51947e-07
3.09878e-06
-1.814e-07
3.09122e-06
-2.29322e-07
3.08373e-06
-1.41435e-07
3.07405e-06
-1.0475e-07
3.07199e-06
-3.55467e-08
3.06907e-06
4.34539e-08
8.95306e-08
3.06879e-06
3.25488e-06
-2.58909e-07
3.27839e-06
4.64526e-07
3.25157e-06
-6.14671e-07
3.26284e-06
-2.62638e-08
3.22957e-06
-6.47836e-07
3.24498e-06
-1.0209e-08
3.24078e-06
1.26993e-07
3.25882e-06
1.64387e-07
3.26128e-06
1.4818e-07
3.26067e-06
-7.38692e-08
3.26513e-06
-3.46774e-08
3.25349e-06
-1.9191e-07
3.25681e-06
-1.55276e-07
3.24741e-06
-1.71994e-07
3.23857e-06
-2.20482e-07
3.23195e-06
-1.3482e-07
3.22205e-06
-9.48422e-08
3.21956e-06
-3.30626e-08
3.21776e-06
4.52596e-08
8.99677e-08
3.21732e-06
3.4103e-06
-2.49278e-07
3.43493e-06
4.39901e-07
3.40706e-06
-5.86808e-07
3.41883e-06
-3.8036e-08
3.38481e-06
-6.13813e-07
3.40044e-06
-2.5836e-08
3.3965e-06
1.30927e-07
3.41389e-06
1.47005e-07
3.41757e-06
1.44502e-07
3.41578e-06
-7.20809e-08
3.42099e-06
-3.98919e-08
3.40926e-06
-1.80177e-07
3.41169e-06
-1.57709e-07
3.40312e-06
-1.63418e-07
3.39304e-06
-2.10404e-07
3.38709e-06
-1.28869e-07
3.3773e-06
-8.50513e-08
3.3743e-06
-3.00642e-08
3.37344e-06
4.61163e-08
9.02885e-08
3.37312e-06
3.57318e-06
-2.39051e-07
3.59887e-06
4.14217e-07
3.5701e-06
-5.58036e-07
3.5822e-06
-5.01436e-08
3.54764e-06
-5.79245e-07
3.56323e-06
-4.14248e-08
3.55984e-06
1.34314e-07
3.57627e-06
1.30574e-07
3.58132e-06
1.39453e-07
3.5784e-06
-6.91647e-08
3.58412e-06
-4.56077e-08
3.5726e-06
-1.68662e-07
3.57388e-06
-1.58986e-07
3.56617e-06
-1.55708e-07
3.55502e-06
-1.99257e-07
3.54949e-06
-1.23333e-07
3.5401e-06
-7.56648e-08
3.53658e-06
-2.65485e-08
3.53647e-06
4.62334e-08
9.02954e-08
3.53646e-06
3.7439e-06
-2.28248e-07
3.77056e-06
3.87561e-07
3.74106e-06
-5.28538e-07
3.75329e-06
-6.2374e-08
3.71843e-06
-5.44384e-07
3.73368e-06
-5.66776e-08
3.73116e-06
1.36838e-07
3.74634e-06
1.15392e-07
3.75283e-06
1.32956e-07
3.74894e-06
-6.52667e-08
3.75486e-06
-5.15349e-08
3.74382e-06
-1.57619e-07
3.74378e-06
-1.58949e-07
3.73687e-06
-1.48795e-07
3.72494e-06
-1.87326e-07
3.71952e-06
-1.17913e-07
3.71079e-06
-6.69338e-08
3.7068e-06
-2.25655e-08
3.70722e-06
4.58193e-08
8.98857e-08
3.70763e-06
3.92284e-06
-2.16899e-07
3.95035e-06
3.60052e-07
3.92035e-06
-4.98543e-07
3.93245e-06
-7.4467e-08
3.89758e-06
-5.09516e-07
3.91217e-06
-7.12659e-08
3.91083e-06
1.38177e-07
3.92451e-06
1.01711e-07
3.93242e-06
1.25044e-07
3.92777e-06
-6.06114e-08
3.93362e-06
-5.73878e-08
3.92322e-06
-1.47221e-07
3.9218e-06
-1.5753e-07
3.91557e-06
-1.42563e-07
3.90315e-06
-1.74909e-07
3.89758e-06
-1.12339e-07
3.8897e-06
-5.90507e-08
3.88535e-06
-1.82136e-08
3.8861e-06
4.50652e-08
8.90217e-08
3.88696e-06
4.1104e-06
-2.05044e-07
4.13862e-06
3.31832e-07
4.1084e-06
-4.6833e-07
4.12005e-06
-8.61174e-08
4.0855e-06
-4.74961e-07
4.09907e-06
-8.48406e-08
4.09921e-06
1.38035e-07
4.11125e-06
8.9676e-08
4.12043e-06
1.15863e-07
4.11527e-06
-5.54528e-08
4.1208e-06
-6.2918e-08
4.11115e-06
-1.37572e-07
4.10834e-06
-1.54719e-07
4.10265e-06
-1.36873e-07
4.09005e-06
-1.62302e-07
4.08413e-06
-1.06428e-07
4.07716e-06
-5.20793e-08
4.07261e-06
-1.36598e-08
4.07353e-06
4.41471e-08
8.76936e-08
4.07485e-06
4.307e-06
-1.92739e-07
4.33575e-06
3.03078e-07
4.30564e-06
-4.38215e-07
4.3165e-06
-9.69838e-08
4.2826e-06
-4.41059e-07
4.29482e-06
-9.7064e-08
4.29666e-06
1.36198e-07
4.30704e-06
7.92965e-08
4.31724e-06
1.05662e-07
4.31184e-06
-5.00534e-08
4.31683e-06
-6.79085e-08
4.30799e-06
-1.28732e-07
4.30382e-06
-1.5055e-07
4.29852e-06
-1.3157e-07
4.286e-06
-1.49777e-07
4.27967e-06
-1.00102e-07
4.27354e-06
-4.59482e-08
4.269e-06
-9.12132e-09
4.26994e-06
4.32128e-08
8.59057e-08
4.27172e-06
4.51309e-06
-1.8005e-07
4.54217e-06
2.73995e-07
4.5125e-06
-4.0855e-07
4.52222e-06
-1.06704e-07
4.48932e-06
-4.08158e-07
4.4999e-06
-1.07645e-07
4.50353e-06
1.32569e-07
4.51238e-06
7.04515e-08
4.52328e-06
9.47634e-08
4.51789e-06
-4.46628e-08
4.52215e-06
-7.21711e-08
4.51416e-06
-1.20746e-07
4.50869e-06
-1.45078e-07
4.50363e-06
-1.26507e-07
4.49145e-06
-1.37601e-07
4.48467e-06
-9.33249e-08
4.47925e-06
-4.05286e-08
4.47493e-06
-4.7985e-09
4.47578e-06
4.23641e-08
8.36764e-08
4.47801e-06
4.72912e-06
-1.67059e-07
4.7583e-06
2.44821e-07
4.72945e-06
-3.79704e-07
4.73767e-06
-1.14917e-07
4.7061e-06
-3.76596e-07
4.71484e-06
-1.16378e-07
4.72019e-06
1.27212e-07
4.72774e-06
6.2907e-08
4.739e-06
8.3502e-08
4.73381e-06
-3.94759e-08
4.73721e-06
-7.55693e-08
4.73007e-06
-1.13603e-07
4.72345e-06
-1.38456e-07
4.71846e-06
-1.21523e-07
4.70683e-06
-1.25968e-07
4.69966e-06
-8.61552e-08
4.69476e-06
-3.56331e-08
4.6908e-06
-8.40047e-10
4.69153e-06
4.16389e-08
8.10518e-08
4.69415e-06
4.9556e-06
-1.53861e-07
4.98459e-06
2.1583e-07
4.95693e-06
-3.52044e-07
4.96332e-06
-1.21304e-07
4.9334e-06
-3.46678e-07
4.94018e-06
-1.23157e-07
4.94706e-06
1.20333e-07
4.95361e-06
5.63572e-08
4.96489e-06
7.22159e-08
4.96008e-06
-3.46611e-08
4.96248e-06
-7.7966e-08
4.95616e-06
-1.07285e-07
4.94859e-06
-1.30887e-07
4.9435e-06
-1.16439e-07
4.9326e-06
-1.15061e-07
4.92514e-06
-7.87024e-08
4.92057e-06
-3.10608e-08
4.91705e-06
2.68567e-09
4.91768e-06
4.10049e-08
7.81079e-08
4.92062e-06
5.19302e-06
-1.40566e-07
5.22153e-06
1.87324e-07
5.19539e-06
-3.25911e-07
5.19972e-06
-1.25631e-07
5.17165e-06
-3.18611e-07
5.17651e-06
-1.28015e-07
5.18459e-06
1.12255e-07
5.19046e-06
5.04869e-08
5.20147e-06
6.12059e-08
5.19716e-06
-3.03488e-08
5.19844e-06
-7.92507e-08
5.19292e-06
-1.01762e-07
5.1846e-06
-1.22566e-07
5.17924e-06
-1.11078e-07
5.16923e-06
-1.05056e-07
5.16167e-06
-7.11351e-08
5.15721e-06
-2.66088e-08
5.15412e-06
5.77982e-09
5.15473e-06
4.03949e-08
7.4934e-08
5.1579e-06
5.44192e-06
-1.27296e-07
5.46961e-06
1.59637e-07
5.44531e-06
-3.0161e-07
5.44745e-06
-1.27774e-07
5.42133e-06
-2.92492e-07
5.42442e-06
-1.31107e-07
5.43329e-06
1.03381e-07
5.43877e-06
4.50081e-08
5.44928e-06
5.0695e-08
5.44551e-06
-2.65731e-08
5.44574e-06
-7.94798e-08
5.44082e-06
-9.68431e-08
5.43198e-06
-1.13727e-07
5.42621e-06
-1.0531e-07
5.41721e-06
-9.60548e-08
5.40974e-06
-6.3667e-08
5.40527e-06
-2.21399e-08
5.40253e-06
8.52061e-09
5.40318e-06
3.97516e-08
7.16024e-08
5.40651e-06
5.70285e-06
-1.14188e-07
5.72936e-06
1.33126e-07
5.70715e-06
-2.79397e-07
5.7071e-06
-1.27729e-07
5.68291e-06
-2.68298e-07
5.68449e-06
-1.32688e-07
5.69375e-06
9.41194e-08
5.69903e-06
3.97334e-08
5.70895e-06
4.07744e-08
5.70558e-06
-2.32042e-08
5.70489e-06
-7.87906e-08
5.70047e-06
-9.24252e-08
5.69127e-06
-1.04525e-07
5.68501e-06
-9.90553e-08
5.67698e-06
-8.80214e-08
5.66989e-06
-5.65747e-08
5.66538e-06
-1.76356e-08
5.66283e-06
1.10711e-08
5.66352e-06
3.90644e-08
6.81632e-08
5.66696e-06
5.9764e-06
-1.01391e-07
6.00135e-06
1.08167e-07
5.98144e-06
-2.59485e-07
5.9793e-06
-1.25588e-07
5.95691e-06
-2.45911e-07
5.95732e-06
-1.33092e-07
5.96657e-06
8.48632e-08
5.97172e-06
3.45904e-08
5.98109e-06
3.13977e-08
5.97794e-06
-2.00493e-08
5.97639e-06
-7.72399e-08
5.97257e-06
-8.86101e-08
5.96317e-06
-9.51233e-08
5.95623e-06
-9.21131e-08
5.94905e-06
-8.08373e-08
5.94262e-06
-5.01494e-08
5.93817e-06
-1.31854e-08
5.93564e-06
1.35976e-08
5.93632e-06
3.83932e-08
6.4646e-08
5.93983e-06
6.26316e-06
-8.90612e-08
6.28617e-06
8.51516e-08
6.26874e-06
-2.42048e-07
6.26468e-06
-1.21534e-07
6.24391e-06
-2.2514e-07
6.2435e-06
-1.32684e-07
6.25242e-06
7.59481e-08
6.25737e-06
2.96396e-08
6.26637e-06
2.2392e-08
6.26321e-06
-1.68842e-08
6.26078e-06
-7.48106e-08
6.25766e-06
-8.54875e-08
6.2484e-06
-8.58621e-08
6.24058e-06
-8.42948e-08
6.23399e-06
-7.42447e-08
6.22841e-06
-4.45734e-08
6.22423e-06
-9.00982e-09
6.22167e-06
1.61662e-08
6.22218e-06
3.78745e-08
6.1085e-08
6.22575e-06
6.56377e-06
-7.73624e-08
6.58444e-06
6.44778e-08
6.56961e-06
-2.27218e-07
6.56391e-06
-1.1583e-07
6.54449e-06
-2.05718e-07
6.54366e-06
-1.31858e-07
6.552e-06
6.76066e-08
6.5565e-06
2.51415e-08
6.56541e-06
1.34824e-08
6.56212e-06
-1.35933e-08
6.5586e-06
-7.12866e-08
6.55629e-06
-8.31756e-08
6.54757e-06
-7.71487e-08
6.53888e-06
-7.56013e-08
6.53246e-06
-6.78234e-08
6.52775e-06
-3.98633e-08
6.52414e-06
-5.40528e-09
6.52161e-06
1.8703e-08
6.52182e-06
3.76561e-08
5.75805e-08
6.52533e-06
6.87889e-06
-6.64624e-08
6.89682e-06
4.65521e-08
6.88468e-06
-2.15086e-07
6.87769e-06
-1.08837e-07
6.85926e-06
-1.87291e-07
6.85841e-06
-1.31009e-07
6.86609e-06
5.99321e-08
6.86974e-06
2.14937e-08
6.87876e-06
4.45868e-09
6.87556e-06
-1.0396e-08
6.87056e-06
-6.62794e-08
6.86886e-06
-8.14774e-08
6.86136e-06
-6.96462e-08
6.85193e-06
-6.61784e-08
6.84521e-06
-6.11025e-08
6.84123e-06
-3.58808e-08
6.83844e-06
-2.61761e-09
6.83611e-06
2.10309e-08
6.836e-06
3.77694e-08
5.43437e-08
6.83924e-06
7.2092e-06
-5.6524e-08
7.22399e-06
3.17581e-08
7.21459e-06
-2.05683e-07
7.20675e-06
-1.00998e-07
7.18893e-06
-1.69466e-07
7.18837e-06
-1.30452e-07
7.19544e-06
5.28592e-08
7.19784e-06
1.90992e-08
7.20695e-06
-4.65342e-09
7.2044e-06
-7.8475e-09
7.19758e-06
-5.9459e-08
7.19594e-06
-7.9838e-08
7.19019e-06
-6.38977e-08
7.18054e-06
-5.65255e-08
7.17313e-06
-5.36893e-08
7.16961e-06
-3.23622e-08
7.16762e-06
-6.34093e-10
7.16579e-06
2.28673e-08
7.16546e-06
3.80919e-08
5.16021e-08
7.16821e-06
7.5554e-06
-4.77031e-08
7.56687e-06
2.02965e-08
7.56001e-06
-1.9883e-07
7.55186e-06
-9.28452e-08
7.5342e-06
-1.5181e-07
7.53411e-06
-1.30354e-07
7.5409e-06
4.60637e-08
7.54158e-06
1.84154e-08
7.55062e-06
-1.3687e-08
7.54929e-06
-6.51604e-09
7.54078e-06
-5.09508e-08
7.53829e-06
-7.73454e-08
7.53448e-06
-6.00922e-08
7.52536e-06
-4.74016e-08
7.5172e-06
-4.55323e-08
7.51363e-06
-2.87887e-08
7.51237e-06
6.24947e-10
7.51123e-06
2.40071e-08
7.51092e-06
3.83952e-08
4.94655e-08
7.51306e-06
7.91825e-06
-4.01377e-08
7.92635e-06
1.21915e-08
7.92169e-06
-1.94171e-07
7.91381e-06
-8.49631e-08
7.89588e-06
-1.3388e-07
7.89619e-06
-1.30662e-07
7.90331e-06
3.89388e-08
7.90193e-06
1.98006e-08
7.91027e-06
-2.20282e-08
7.91085e-06
-7.09427e-09
7.90114e-06
-4.12449e-08
7.8969e-06
-7.31038e-08
7.89472e-06
-5.79126e-08
7.88699e-06
-3.96714e-08
7.87829e-06
-3.68369e-08
7.87418e-06
-2.46771e-08
7.87348e-06
1.33244e-09
7.87306e-06
2.44181e-08
7.87307e-06
3.839e-08
4.78263e-08
7.87471e-06
8.29848e-06
-3.3938e-08
8.30333e-06
7.34668e-09
8.30038e-06
-1.91228e-07
8.29338e-06
-7.79638e-08
8.27483e-06
-1.15323e-07
8.27525e-06
-1.31084e-07
8.28339e-06
3.08004e-08
8.27994e-06
2.32429e-08
8.28657e-06
-2.86557e-08
8.28954e-06
-1.00659e-08
8.27954e-06
-3.12427e-08
8.27302e-06
-6.658e-08
8.27164e-06
-5.65385e-08
8.2659e-06
-3.393e-08
8.25725e-06
-2.81892e-08
8.25231e-06
-1.97325e-08
8.25177e-06
1.86965e-09
8.25203e-06
2.41613e-08
8.25251e-06
3.79068e-08
4.63341e-08
8.25401e-06
8.6969e-06
-2.91728e-08
8.69871e-06
5.53794e-09
8.69688e-06
-1.89407e-07
8.69134e-06
-7.24225e-08
8.67203e-06
-9.601e-08
8.672e-06
-1.31052e-07
8.68177e-06
2.10237e-08
8.67673e-06
2.82862e-08
8.6805e-06
-3.24276e-08
8.68581e-06
-1.53769e-08
8.67672e-06
-2.21466e-08
8.66792e-06
-5.77774e-08
8.66624e-06
-5.4865e-08
8.66259e-06
-3.02788e-08
8.65475e-06
-2.03494e-08
8.64911e-06
-1.40891e-08
8.6482e-06
2.77945e-09
8.64897e-06
2.3389e-08
8.65e-06
3.68804e-08
4.47159e-08
8.65161e-06
9.11431e-06
-2.58614e-08
9.11342e-06
6.42094e-09
9.11203e-06
-1.88012e-07
9.10846e-06
-6.88541e-08
9.08854e-06
-7.60864e-08
9.08725e-06
-1.29766e-07
9.09907e-06
9.20172e-09
9.09329e-06
3.4074e-08
9.09332e-06
-3.24598e-08
9.10022e-06
-2.22811e-08
9.09329e-06
-1.52139e-08
9.08264e-06
-4.7131e-08
9.07968e-06
-5.18974e-08
9.07778e-06
-2.8384e-08
9.07146e-06
-1.40253e-08
9.06542e-06
-8.05033e-09
9.06383e-06
4.36938e-09
9.06483e-06
2.23897e-08
9.06632e-06
3.53838e-08
4.27807e-08
9.06826e-06
9.55156e-06
-2.39624e-08
9.54845e-06
9.52843e-09
9.54674e-06
-1.86298e-07
9.54554e-06
-6.76518e-08
9.52543e-06
-5.59845e-08
9.52199e-06
-1.26318e-07
9.5358e-06
-4.61125e-09
9.53057e-06
3.93014e-08
9.52654e-06
-2.8424e-08
9.53353e-06
-2.92702e-08
9.52966e-06
-1.13514e-08
9.5182e-06
-3.56658e-08
9.51328e-06
-4.69826e-08
9.51237e-06
-2.74703e-08
9.50793e-06
-9.58713e-09
9.50211e-06
-2.22748e-09
9.49978e-06
6.69447e-09
9.50065e-06
2.15262e-08
9.50235e-06
3.36812e-08
4.04229e-08
9.50471e-06
1.00095e-05
-2.33659e-08
1.00048e-05
1.42956e-08
1.0002e-05
-1.83507e-07
1.00034e-05
-6.90288e-08
9.98376e-06
-3.63896e-08
9.97742e-06
-1.19971e-07
9.99263e-06
-1.98216e-08
9.98942e-06
4.25113e-08
9.98153e-06
-2.05393e-08
9.987e-06
-3.47353e-08
9.9864e-06
-1.07507e-08
9.97537e-06
-2.46443e-08
9.96838e-06
-3.99864e-08
9.96745e-06
-2.65445e-08
9.96492e-06
-7.05884e-09
9.95997e-06
2.72772e-09
9.95705e-06
9.60912e-09
9.95747e-06
2.11102e-08
9.95923e-06
3.1926e-08
3.78027e-08
9.96185e-06
1.04891e-05
-2.38729e-08
1.04834e-05
2.00525e-08
1.04788e-05
-1.78943e-07
1.04827e-05
-7.29221e-08
1.04646e-05
-1.82352e-08
1.04548e-05
-1.1021e-07
1.04704e-05
-3.54525e-08
1.04704e-05
4.25028e-08
1.04596e-05
-9.74232e-09
1.04622e-05
-3.72582e-08
1.04643e-05
-1.28567e-08
1.04548e-05
-1.51926e-08
1.04462e-05
-3.13401e-08
1.04443e-05
-2.46902e-08
1.04434e-05
-6.10746e-09
1.04398e-05
6.34077e-09
1.04366e-05
1.2792e-08
1.04365e-05
2.11416e-08
1.04382e-05
3.02864e-08
3.52975e-08
1.04407e-05
1.09914e-05
-2.52201e-08
1.09853e-05
2.60947e-08
1.09785e-05
-1.7208e-07
1.09845e-05
-7.89761e-08
1.09688e-05
-2.52242e-09
1.09556e-05
-9.69738e-08
1.09702e-05
-5.00964e-08
1.09742e-05
3.85013e-08
1.09619e-05
2.52229e-09
1.09607e-05
-3.60574e-08
1.09643e-05
-1.64373e-08
1.09573e-05
-8.20541e-09
1.09477e-05
-2.17435e-08
1.09444e-05
-2.13258e-08
1.09443e-05
-6.00536e-09
1.09423e-05
8.31646e-09
1.09394e-05
1.57127e-08
1.09389e-05
2.16445e-08
1.09403e-05
2.88367e-08
3.30423e-08
1.09426e-05
1.15172e-05
-2.70997e-08
1.15116e-05
3.17249e-08
1.15021e-05
-1.62606e-07
1.15097e-05
-8.65792e-08
1.14974e-05
9.77362e-09
1.14811e-05
-8.06108e-08
1.14932e-05
-6.22011e-08
1.15012e-05
3.04963e-08
1.14893e-05
1.43959e-08
1.14843e-05
-3.10393e-08
1.14879e-05
-2.00447e-08
1.14837e-05
-4.00379e-09
1.14741e-05
-1.21298e-08
1.14691e-05
-1.63355e-08
1.14689e-05
-5.82433e-09
1.14685e-05
8.76635e-09
1.14664e-05
1.77483e-08
1.14654e-05
2.26658e-08
1.14667e-05
2.75837e-08
3.10867e-08
1.14686e-05
1.20679e-05
-2.9183e-08
1.20633e-05
3.63177e-08
1.20512e-05
-1.50493e-07
1.20595e-05
-9.49086e-08
1.20513e-05
1.79779e-08
1.20326e-05
-6.19295e-08
1.20408e-05
-7.03793e-08
1.20523e-05
1.8995e-08
1.20425e-05
2.42282e-08
1.20342e-05
-2.27005e-08
1.20365e-05
-2.24058e-08
1.20349e-05
-2.41282e-09
1.20262e-05
-3.44343e-09
1.20199e-05
-9.98466e-09
1.20188e-05
-4.74885e-09
1.20194e-05
8.1603e-09
1.20187e-05
1.8489e-08
1.20175e-05
2.38589e-08
1.20183e-05
2.67798e-08
2.93032e-08
1.20201e-05
1.26446e-05
-3.11526e-08
1.26415e-05
3.93684e-08
1.2627e-05
-1.35997e-07
1.26351e-05
-1.02965e-07
1.26313e-05
2.1727e-08
1.26114e-05
-4.20218e-08
1.26149e-05
-7.3833e-08
1.26286e-05
5.23508e-09
1.26222e-05
3.06792e-08
1.26115e-05
-1.20259e-08
1.26117e-05
-2.26509e-08
1.26121e-05
-2.79251e-09
1.26052e-05
3.53392e-09
1.2598e-05
-2.79619e-09
1.25957e-05
-2.44797e-09
1.25966e-05
7.25915e-09
1.25971e-05
1.79815e-08
1.25964e-05
2.44954e-08
1.25966e-05
2.66412e-08
2.75978e-08
1.25983e-05
1.32485e-05
-3.27163e-08
1.32474e-05
4.04982e-08
1.32309e-05
-1.19578e-07
1.32377e-05
-1.09757e-07
1.32384e-05
2.11113e-08
1.32187e-05
-2.23267e-08
1.32171e-05
-7.2245e-08
1.32314e-05
-9.13755e-09
1.32292e-05
3.29293e-08
1.32175e-05
-2.95696e-10
1.32152e-05
-2.03709e-08
1.32167e-05
-4.2714e-09
1.32119e-05
8.34076e-09
1.32045e-05
4.53522e-09
1.32011e-05
1.00919e-09
1.32016e-05
6.70252e-09
1.3203e-05
1.661e-08
1.32035e-05
2.40261e-08
1.32033e-05
2.67945e-08
2.63256e-08
1.32046e-05
1.38811e-05
-3.36411e-08
1.38821e-05
3.9515e-08
1.38644e-05
-1.01861e-07
1.3869e-05
-1.1438e-07
1.38735e-05
1.66114e-08
1.38554e-05
-4.26964e-09
1.38491e-05
-6.59701e-08
1.38623e-05
-2.22603e-08
1.38643e-05
3.08514e-08
1.38531e-05
1.09358e-08
1.38482e-05
-1.54949e-08
1.38499e-05
-5.97658e-09
1.38475e-05
1.07611e-08
1.38408e-05
1.12652e-08
1.38363e-05
5.51954e-09
1.38362e-05
6.80493e-09
1.38381e-05
1.47261e-08
1.38397e-05
2.23842e-08
1.38401e-05
2.6376e-08
2.58116e-08
1.38406e-05
1.45438e-05
-3.37814e-08
1.45468e-05
3.64856e-08
1.45286e-05
-8.36748e-08
1.45303e-05
-1.16067e-07
1.45379e-05
9.04915e-09
1.45228e-05
1.07972e-08
1.45126e-05
-5.57715e-08
1.45229e-05
-3.25623e-08
1.45288e-05
2.49806e-08
1.45195e-05
2.02679e-08
1.45124e-05
-8.42645e-09
1.45135e-05
-7.02311e-09
1.45132e-05
1.09909e-08
1.4508e-05
1.64723e-08
1.45027e-05
1.08135e-08
1.45017e-05
7.81656e-09
1.45037e-05
1.27688e-08
1.4506e-05
2.00309e-08
1.45076e-05
2.48325e-08
2.53805e-08
1.4508e-05
1.52382e-05
-3.30712e-08
1.5243e-05
3.16675e-08
1.52252e-05
-6.58851e-08
1.52235e-05
-1.14324e-07
1.52331e-05
-5.88955e-10
1.52219e-05
2.19788e-08
1.5209e-05
-4.28985e-08
1.52154e-05
-3.88976e-08
1.52239e-05
1.64261e-08
1.52177e-05
2.65391e-08
1.5209e-05
1.85942e-10
1.52087e-05
-6.70877e-09
1.52102e-05
9.49417e-09
1.52071e-05
1.95629e-08
1.52018e-05
1.61255e-08
1.51997e-05
9.97435e-09
1.52013e-05
1.1165e-08
1.52041e-05
1.72005e-08
1.52064e-05
2.2514e-08
2.43333e-08
1.52075e-05
1.59658e-05
-3.15398e-08
1.59719e-05
2.55194e-08
1.59554e-05
-4.93632e-08
1.59501e-05
-1.08989e-07
1.59607e-05
-1.11882e-08
1.59538e-05
2.88508e-08
1.59397e-05
-2.87791e-08
1.59417e-05
-4.09333e-08
1.59513e-05
6.87613e-09
1.59486e-05
2.91979e-08
1.59398e-05
8.96447e-09
1.59375e-05
-4.33622e-09
1.59399e-05
7.04983e-09
1.59391e-05
2.03329e-08
1.59348e-05
2.04909e-08
1.59316e-05
1.31091e-08
1.59324e-05
1.04203e-08
1.59354e-05
1.42126e-08
1.59382e-05
1.97049e-08
2.25188e-08
1.594e-05
1.67284e-05
-2.92891e-08
1.67352e-05
1.86272e-08
1.67207e-05
-3.48366e-08
1.67121e-05
-1.00392e-07
1.67224e-05
-2.1472e-08
1.67199e-05
3.13633e-08
1.67059e-05
-1.47382e-08
1.67039e-05
-3.9007e-08
1.6713e-05
-2.19523e-09
1.67136e-05
2.85693e-08
1.6706e-05
1.66037e-08
1.67017e-05
-8.23597e-11
1.67039e-05
4.86959e-09
1.67052e-05
1.89947e-08
1.67027e-05
2.30837e-08
1.6699e-05
1.68025e-08
1.66985e-05
1.08767e-08
1.67011e-05
1.16154e-08
1.67043e-05
1.64825e-08
2.02222e-08
1.67066e-05
1.75275e-05
-2.64743e-08
1.75346e-05
1.15828e-08
1.75225e-05
-2.27783e-08
1.75114e-05
-8.92393e-08
1.75202e-05
-3.0286e-08
1.75215e-05
3.00242e-08
1.75089e-05
-2.10218e-09
1.75037e-05
-3.38084e-08
1.7511e-05
-9.46446e-09
1.75144e-05
2.51596e-08
1.75086e-05
2.24145e-08
1.75033e-05
5.17595e-09
1.75041e-05
4.08024e-09
1.75069e-05
1.6155e-08
1.75064e-05
2.36433e-08
1.75031e-05
2.00943e-08
1.75013e-05
1.26792e-08
1.75028e-05
1.01462e-08
1.7506e-05
1.32442e-08
1.75052e-08
1.75087e-05
1.83652e-05
-2.32976e-08
1.83718e-05
4.95383e-09
1.83624e-05
-1.34215e-08
1.83496e-05
-7.63757e-08
1.83562e-05
-3.68792e-08
1.83604e-05
2.58203e-08
1.83502e-05
8.08637e-09
1.83427e-05
-2.62935e-08
1.83473e-05
-1.41048e-08
1.83527e-05
1.97941e-08
1.83492e-05
2.58503e-08
1.83436e-05