/*--------------------------------*- C++ -*----------------------------------*\
| =========                 |                                                 |
| \\      /  F ield         | OpenFOAM: The Open Source CFD Toolbox           |
|  \\    /   O peration     | Version:  2106                                  |
|   \\  /    A nd           | Website:  www.openfoam.com                      |
|    \\/     M anipulation  |                                                 |
\*---------------------------------------------------------------------------*/
FoamFile
{
    version     2.0;
    format      ascii;
    arch        "LSB;label=32;scalar=64";
    class       volScalarField;
    location    "0.64";
    object      p;
}
// * * * * * * * * * * * * * * * * * * * * * * * * * * * * * * * * * * * * * //

dimensions      [0 2 -2 0 0 0 0];

internalField   nonuniform List<scalar> 
9600
(
-1.67245e-11
0.00147716
0.00192537
0.00206695
0.000445816
0.00307449
0.00324933
0.00358341
0.00339228
0.00351739
0.0035404
0.00409072
0.00407842
0.00440653
0.00486717
0.00514324
0.00558328
0.00752679
0.00852714
0.0111476
6.25249e-06
0.0014717
0.00192051
0.00208584
0.00045179
0.00307371
0.00324714
0.00358034
0.00339315
0.00351894
0.00354313
0.00408109
0.00408402
0.00439579
0.00487419
0.00512764
0.0055904
0.00743228
0.00855271
0.0107847
1.22485e-05
0.00146651
0.00191724
0.00210199
0.000457194
0.00307093
0.00324584
0.00357603
0.00339578
0.00352215
0.00354638
0.00406719
0.00408924
0.00437864
0.00488527
0.00510664
0.00559276
0.00734997
0.00856022
0.0103626
1.83387e-05
0.00146664
0.00191482
0.00211301
0.000462839
0.00307096
0.0032454
0.00357154
0.00339849
0.00352617
0.00354994
0.00404955
0.00409303
0.00435785
0.00489867
0.00508205
0.00559545
0.00726711
0.00853495
0.00997235
2.591e-05
0.00147181
0.00191177
0.00212008
0.000471595
0.00307389
0.00324361
0.00356624
0.00340036
0.00352995
0.00355312
0.00402927
0.00409637
0.00433506
0.00491526
0.00505459
0.00559993
0.0071759
0.00848475
0.00963081
3.54191e-05
0.00148093
0.00190734
0.00212398
0.000484846
0.00307771
0.00323901
0.00355964
0.0034012
0.0035326
0.00355577
0.0040078
0.00409966
0.0043121
0.00493411
0.00502511
0.00560285
0.00707957
0.00841546
0.0093218
4.68535e-05
0.00149284
0.0019011
0.00212538
0.00050284
0.00308155
0.00323132
0.00355169
0.00340125
0.00353388
0.00355832
0.0039856
0.00410323
0.00428935
0.0049535
0.00499451
0.00560176
0.00698278
0.00832478
0.00903396
5.9974e-05
0.00150637
0.00189315
0.00212503
0.000525276
0.00308542
0.00322086
0.00354259
0.00340113
0.00353389
0.00356115
0.00396255
0.00410728
0.00426644
0.00497259
0.00496341
0.00559491
0.00688748
0.00820928
0.00876351
7.44724e-05
0.00152064
0.00188401
0.00212362
0.000551472
0.00308941
0.00320831
0.00353257
0.00340132
0.00353271
0.00356454
0.00393841
0.00411186
0.00424324
0.00499061
0.00493224
0.00558036
0.00679465
0.00806861
0.00850693
9.00932e-05
0.00153516
0.00187435
0.0021216
0.000580603
0.00309353
0.00319383
0.0035217
0.00340212
0.00353027
0.00356863
0.00391301
0.00411687
0.00421987
0.00500637
0.00490204
0.00555607
0.00670477
0.00790435
0.008259
0.000106695
0.00154972
0.00186473
0.00211927
0.000611901
0.00309775
0.00318032
0.00350983
0.00340374
0.00352644
0.00357351
0.00388628
0.00412214
0.00419657
0.00501878
0.00487402
0.00552011
0.00661781
0.00771924
0.00801388
0.000124231
0.0015642
0.00185555
0.00211678
0.000644724
0.00310202
0.00316726
0.00349673
0.00340634
0.00352112
0.00357914
0.00385829
0.00412738
0.00417386
0.00502672
0.00484906
0.00547109
0.00653278
0.00751715
0.00776646
0.000142715
0.00157853
0.00184711
0.00211421
0.000678619
0.00310624
0.00315512
0.00348221
0.00341003
0.00351418
0.00358544
0.00382917
0.00413222
0.00415258
0.00502891
0.00482765
0.0054084
0.00644744
0.00730333
0.00751319
0.000162195
0.00159263
0.00183954
0.0021116
0.000713322
0.00311028
0.00314429
0.00346605
0.00341493
0.00350553
0.00359227
0.00379922
0.00413606
0.00413359
0.00502414
0.00481001
0.00533226
0.00635855
0.0070836
0.00725222
0.000182742
0.00160641
0.00183294
0.00210897
0.000748696
0.00311398
0.00313507
0.00344809
0.00342108
0.00349462
0.00359938
0.00376883
0.00413819
0.00411768
0.00501143
0.00479573
0.00524392
0.00626225
0.0068634
0.00698335
0.000204435
0.00161975
0.00182733
0.00210635
0.000784688
0.00311708
0.00312769
0.0034282
0.00342852
0.00348247
0.00360642
0.00373856
0.00413785
0.00410546
0.00499003
0.00478367
0.00514548
0.00615486
0.00664692
0.00670801
0.000227358
0.00163249
0.00182271
0.00210377
0.000821274
0.00311936
0.00312232
0.00340629
0.00343701
0.00346886
0.00361295
0.00370907
0.00413421
0.00409721
0.00495969
0.00477197
0.00503951
0.00603363
0.00643653
0.00642881
0.000251594
0.0016445
0.00181911
0.00210128
0.000858431
0.00312055
0.00311915
0.00338227
0.00344649
0.00345404
0.00361845
0.00368105
0.00412659
0.00409285
0.00492077
0.00475823
0.00492855
0.00589711
0.00623293
0.00614918
0.000277222
0.00165565
0.00181652
0.00209894
0.000896129
0.00312044
0.00311832
0.00335614
0.00345678
0.00343834
0.00362233
0.0036551
0.00411452
0.0040921
0.00487399
0.00473986
0.00481465
0.00574524
0.00603568
0.00587304
0.000304319
0.00166581
0.00181494
0.00209685
0.000934322
0.00311883
0.00311993
0.00332791
0.00346762
0.00342223
0.00362397
0.00363169
0.00409771
0.0041055
0.00482048
0.00471451
0.0046993
0.00557901
0.00584317
0.00560442
0.000332953
0.00167489
0.00181435
0.00209509
0.000972934
0.00311559
0.00312407
0.00329768
0.00347869
0.00340619
0.00362278
0.00361113
0.00407588
0.00410902
0.00476147
0.00468021
0.00458365
0.00540026
0.00565283
0.00534674
0.000363184
0.00168279
0.00181473
0.00209379
0.00101187
0.00311061
0.00313077
0.0032656
0.0034896
0.00339068
0.00361826
0.0035935
0.00404924
0.00411273
0.00469785
0.00463522
0.00446855
0.0052116
0.00546184
0.005102
0.000395065
0.00168947
0.00181602
0.00209308
0.00105101
0.00310382
0.00314013
0.00323188
0.00349991
0.00337615
0.00361009
0.00357869
0.00401808
0.00411573
0.00463036
0.00457801
0.00435417
0.00501631
0.00526816
0.00487032
0.000428639
0.0016949
0.00181811
0.00209315
0.00109024
0.00309515
0.00315216
0.00319675
0.00350923
0.00336306
0.00359794
0.00356669
0.00398269
0.00411659
0.00456012
0.00450748
0.00423979
0.00481813
0.00507141
0.00464993
0.00046392
0.0016991
0.00182089
0.00209416
0.00112947
0.00308451
0.00316689
0.00316051
0.00351716
0.00335176
0.00358143
0.00355744
0.0039435
0.0041136
0.0044883
0.00442318
0.00412394
0.00462051
0.00487292
0.00443836
0.000500909
0.00170214
0.00182421
0.00209632
0.00116859
0.00307184
0.00318441
0.00312335
0.00352334
0.00334268
0.00356018
0.00355069
0.00390097
0.00410467
0.00441612
0.00432601
0.00400467
0.00442556
0.00467493
0.0042345
0.000539607
0.00170417
0.00182782
0.00209978
0.00120757
0.00305704
0.00320477
0.0030855
0.0035273
0.00333638
0.00353383
0.00354599
0.00385574
0.00408718
0.00434429
0.00421844
0.00387985
0.00423346
0.00447956
0.00403976
0.000579948
0.00170537
0.00183148
0.0021047
0.00124648
0.00303991
0.00322809
0.00304739
0.00352837
0.00333334
0.00350205
0.00354451
0.00380898
0.00405861
0.00427238
0.00410396
0.00374842
0.00404313
0.00428751
0.00385668
0.000621842
0.001706
0.0018349
0.00211113
0.00128546
0.00302027
0.0032545
0.00300951
0.00352567
0.00333417
0.00346442
0.00354274
0.00376257
0.00401716
0.00419887
0.00398639
0.00361114
0.00385359
0.0040976
0.00368625
0.000665204
0.00170641
0.00183783
0.00211902
0.00132472
0.00299782
0.00328415
0.00297249
0.00351804
0.00333985
0.00342086
0.00353892
0.00371897
0.00396239
0.00412116
0.003869
0.00346975
0.00366432
0.00390857
0.003527
0.000709876
0.00170699
0.00184003
0.00212822
0.00136464
0.00297213
0.00331705
0.00293729
0.00350394
0.00335142
0.00337197
0.00352958
0.00368033
0.00389511
0.00403611
0.00375394
0.00332651
0.00347473
0.00372003
0.00337643
0.000755647
0.0017082
0.00184135
0.00213842
0.00140569
0.00294286
0.00335293
0.00290509
0.00348185
0.00336907
0.00331919
0.00351083
0.00364764
0.00381824
0.00394076
0.00364169
0.00318467
0.0032841
0.00353128
0.00323246
0.000802287
0.00171049
0.00184179
0.00214921
0.00144843
0.0029096
0.00339129
0.00287777
0.00345028
0.00339317
0.00326508
0.0034786
0.00361983
0.00373705
0.00383337
0.00353043
0.00304823
0.00309323
0.00334018
0.00309318
0.000849567
0.00171426
0.0018414
0.00215997
0.00149349
0.00287214
0.00343127
0.00285757
0.00340793
0.00341944
0.00321314
0.00343001
0.0035942
0.0036575
0.00371447
0.00341662
0.00292012
0.00290563
0.00314417
0.00295532
0.000897244
0.00171986
0.00184047
0.00216986
0.00154147
0.0028308
0.00347141
0.00284667
0.00335425
0.00344553
0.00316732
0.00336494
0.00356592
0.00358391
0.00358687
0.00329651
0.0028006
0.00272645
0.00294262
0.00281358
0.000945093
0.00172759
0.00183953
0.00217791
0.00159272
0.00278612
0.0035096
0.0028476
0.00328951
0.00346704
0.00313094
0.00328451
0.00352923
0.00351808
0.00345494
0.00316761
0.00268729
0.00256012
0.00273869
0.00266265
0.000992967
0.00173752
0.00183937
0.00218312
0.00164705
0.00273916
0.00354334
0.00286216
0.00321513
0.00347893
0.00310584
0.00319268
0.00347995
0.00345973
0.00332365
0.0030288
0.00257618
0.00240923
0.0025385
0.00249997
0.00104072
0.00174952
0.00184102
0.00218461
0.00170367
0.0026918
0.00357031
0.00289059
0.00313489
0.00347633
0.00309175
0.00309543
0.00341591
0.00340721
0.00319763
0.00288023
0.00246261
0.00227432
0.00234921
0.00232701
0.00108811
0.00176328
0.00184575
0.00218177
0.00176113
0.00264668
0.00358819
0.00293145
0.00305436
0.00345599
0.00308463
0.00299806
0.00333656
0.00335791
0.00308112
0.00272375
0.00234146
0.00215324
0.00217746
0.00214916
0.00113221
0.00177826
0.00185478
0.00217446
0.00181736
0.0026067
0.00359534
0.00298196
0.00297898
0.00341696
0.00307937
0.0029036
0.00324267
0.00330863
0.00297745
0.00256352
0.00220804
0.00204032
0.00202836
0.00197527
0.00117882
0.00179379
0.00186889
0.00216334
0.00186974
0.002574
0.00359163
0.00303791
0.00291251
0.00336132
0.00307227
0.00281379
0.00313558
0.00325576
0.00288862
0.00240551
0.00205997
0.00192734
0.00190324
0.001817
0.00122572
0.00180921
0.00188856
0.00215003
0.00191708
0.00254903
0.0035788
0.00309476
0.00285676
0.0032936
0.00306137
0.00272955
0.00301618
0.00319552
0.00281565
0.00225649
0.00189873
0.00180534
0.00179632
0.00168558
0.00127259
0.00182392
0.00191379
0.00213693
0.00195295
0.00253144
0.00355987
0.00314871
0.00281235
0.00321781
0.00304541
0.00265202
0.00288539
0.00312366
0.00275743
0.00212316
0.00172962
0.00166835
0.00169627
0.00158617
0.00131797
0.00183748
0.00194404
0.00212692
0.00197719
0.00251829
0.00353846
0.00319784
0.00277642
0.00313639
0.00302513
0.0025823
0.00274516
0.0030354
0.0027097
0.00201194
0.00156019
0.0015153
0.0015908
0.00151111
0.00136508
0.00184959
0.00197792
0.00212292
0.00198882
0.00250433
0.00351761
0.00324238
0.00274552
0.00305069
0.0030015
0.00252324
0.00259968
0.00292604
0.00266566
0.00192727
0.00139904
0.00134889
0.00147234
0.00144453
0.00141422
0.00186006
0.00201333
0.00212724
0.00198968
0.00248379
0.00349772
0.00328538
0.00271851
0.00295974
0.00297314
0.00247894
0.00245449
0.00279302
0.00261627
0.00186865
0.00125574
0.00117429
0.00134016
0.00137305
0.00146476
0.00186886
0.00204812
0.00214142
0.00198358
0.0024521
0.00347729
0.00333088
0.00269652
0.00286129
0.00293774
0.0024514
0.00231712
0.00263817
0.00255133
0.00182993
0.00113924
0.000998397
0.00119556
0.00129218
0.00151683
0.00187617
0.00208007
0.00216605
0.00197482
0.00240629
0.00345154
0.00338116
0.00268232
0.00275495
0.00289091
0.00243876
0.00219784
0.00246863
0.00246245
0.00180156
0.00105479
0.000830294
0.00103788
0.00120275
0.00157041
0.00188266
0.00210713
0.00220014
0.00196947
0.00234638
0.00341283
0.00343559
0.00268272
0.00264342
0.0028263
0.00243615
0.00210494
0.0022937
0.00234663
0.00177162
0.00100197
0.000682537
0.000868066
0.00110273
0.00162534
0.00188927
0.00212779
0.00224138
0.00197169
0.00227354
0.00335401
0.00349098
0.0027042
0.00253083
0.00273887
0.00243695
0.00204197
0.00212538
0.00220729
0.00172824
0.000972816
0.00056762
0.000694841
0.000985908
0.00168131
0.00189712
0.00214109
0.00228647
0.00198939
0.00219231
0.00327008
0.00354092
0.00274976
0.00242489
0.00262769
0.00243035
0.00200755
0.00197659
0.00205301
0.00166438
0.000954135
0.000490391
0.000534994
0.000849198
0.00173776
0.00190738
0.00214683
0.00233101
0.00202271
0.00211054
0.0031586
0.00357517
0.00281867
0.00233781
0.00249746
0.00240426
0.00199507
0.00185679
0.0018945
0.00158085
0.000934
0.000444523
0.000405455
0.000701348
0.001794
0.00192123
0.0021453
0.00239027
0.00207177
0.00203734
0.00302132
0.00358158
0.00290633
0.00228051
0.00235494
0.0023519
0.00199501
0.00176949
0.00174253
0.00148177
0.0009064
0.000417825
0.000314043
0.000561856
0.00184913
0.00193943
0.00213754
0.00242229
0.00213405
0.00197993
0.00286252
0.00355109
0.00300231
0.00226033
0.0022108
0.00227003
0.00199517
0.00171433
0.00160803
0.00137189
0.000869034
0.000400423
0.000256737
0.000449112
0.00190223
0.00196238
0.00212627
0.00244181
0.00220458
0.00194437
0.00269155
0.00347863
0.00309061
0.00227799
0.00208265
0.00216272
0.00198076
0.00168524
0.00150077
0.00125965
0.000820724
0.000386612
0.000223969
0.000371292
0.00195248
0.0019901
0.00211443
0.00244723
0.00227605
0.00193398
0.0025216
0.00336348
0.00315556
0.002328
0.00198494
0.00204148
0.00194377
0.00166896
0.00142337
0.00115618
0.000763253
0.000372964
0.000207854
0.000325649
0.00199923
0.0020219
0.00210522
0.00243874
0.00234093
0.00194952
0.00236578
0.00320893
0.00318454
0.00240061
0.00192155
0.00191873
0.0018879
0.0016551
0.00137141
0.00106932
0.000701521
0.00035669
0.000203872
0.000305582
0.00204216
0.00205639
0.00210095
0.00241717
0.00239281
0.00198709
0.00223333
0.00302542
0.00316778
0.00248076
0.00189586
0.00180392
0.00181501
0.00164032
0.00134084
0.00100246
0.000641452
0.000335057
0.000207473
0.000305817
0.00208104
0.00209207
0.00210246
0.0023864
0.00242735
0.00203867
0.00212988
0.00283052
0.00310456
0.00254809
0.00190615
0.00171061
0.001728
0.00161783
0.00132945
0.00095922
0.000589266
0.000307172
0.000210908
0.000321385
0.00211577
0.0021275
0.00210995
0.00235105
0.00244283
0.00209485
0.00205799
0.00263946
0.00299961
0.0025887
0.00193873
0.00164623
0.00163843
0.00158135
0.00132992
0.00094262
0.000552494
0.000276425
0.000205512
0.000342989
0.00214669
0.00216113
0.00212277
0.00231506
0.0024402
0.00214633
0.00201606
0.0024637
0.00286277
0.00259845
0.00197971
0.00160787
0.00155718
0.0015343
0.00133169
0.00095043
0.000538452
0.000251362
0.000189225
0.000357254
0.00217407
0.0021918
0.0021396
0.00228129
0.00242178
0.00218717
0.00199747
0.00231205
0.00270732
0.00257387
0.00202159
0.00159161
0.00148616
0.00148261
0.00133114
0.000975601
0.000550588
0.000241912
0.000169375
0.000355936
0.00219774
0.00221866
0.00215881
0.00225134
0.0023912
0.00221458
0.00199267
0.00218643
0.00254825
0.00251611
0.00205313
0.00159696
0.00142756
0.00142571
0.00132747
0.0010127
0.000588575
0.000255681
0.000158864
0.000343105
0.00221814
0.00224094
0.00217762
0.00222611
0.0023526
0.00222725
0.00199522
0.00208456
0.00239525
0.00243454
0.00206521
0.00161582
0.00138946
0.00136504
0.00131534
0.00105854
0.000651272
0.000299309
0.00016964
0.000331987
0.00223546
0.00225833
0.00219465
0.00220541
0.00230962
0.00222546
0.00200027
0.00200397
0.00225124
0.0023385
0.00205828
0.0016364
0.00137209
0.00131174
0.00129066
0.0011061
0.000737403
0.0003758
0.000212019
0.000338081
0.00224937
0.00227078
0.00220854
0.00218824
0.00226496
0.00221084
0.00200339
0.00194165
0.00211882
0.00223159
0.00203489
0.00165398
0.00136841
0.0012743
0.00126057
0.00114544
0.000841862
0.000486819
0.000292059
0.000373328
0.00225969
0.00227841
0.00221856
0.00217349
0.00222034
0.00218553
0.00200144
0.00189368
0.00200083
0.00211721
0.00199433
0.0016674
0.00137397
0.00125263
0.00123692
0.00117422
0.000954219
0.000632126
0.000414046
0.0004476
0.00226636
0.00228127
0.00222417
0.0021601
0.00217671
0.00215175
0.00199266
0.00185579
0.00189825
0.00200061
0.00193607
0.00167272
0.0013877
0.00124403
0.00122573
0.00120031
0.00106369
0.000806468
0.000583802
0.000570867
0.00226937
0.00227937
0.002225
0.00214739
0.00213465
0.00211125
0.00197617
0.0018244
0.00181035
0.00188641
0.00186219
0.00166436
0.00140634
0.00124763
0.00122694
0.00123299
0.00116879
0.000998824
0.000803388
0.000755422
0.00226882
0.00227297
0.00222074
0.00213466
0.00209477
0.00206582
0.00195134
0.00179627
0.00173608
0.00177788
0.0017767
0.00163857
0.00142278
0.00126217
0.00123877
0.00127662
0.00127635
0.0012005
0.00106875
0.00100998
0.00226481
0.00226243
0.00221128
0.00212113
0.00205754
0.00201744
0.00191813
0.00176808
0.00167416
0.00167812
0.00168432
0.00159545
0.00143046
0.00128388
0.00125973
0.0013312
0.00139466
0.00141113
0.00136994
0.00133493
0.00225756
0.00224833
0.00219669
0.00210598
0.00202332
0.00196804
0.00187752
0.00173689
0.00162192
0.00159036
0.00159109
0.00153831
0.00142645
0.00130999
0.00129007
0.00139364
0.00152643
0.00163293
0.00169304
0.00171374
0.00224721
0.00223153
0.00217748
0.00208823
0.00199204
0.00191972
0.00183154
0.00170115
0.00157588
0.0015158
0.00150448
0.00147448
0.00141228
0.00134114
0.00133673
0.00146729
0.00166904
0.00186146
0.00201048
0.00208981
0.002234
0.00221279
0.00215479
0.00206735
0.00196302
0.00187434
0.00178294
0.00166115
0.00153328
0.00145305
0.00142961
0.00141423
0.00139505
0.00138074
0.00141052
0.00156372
0.00181806
0.00207632
0.00227893
0.00238664
0.00221843
0.00219271
0.00212999
0.00204358
0.00193509
0.00183299
0.00173484
0.00161898
0.0014937
0.00140067
0.00136701
0.00136422
0.00138354
0.0014326
0.00151441
0.00168723
0.00196307
0.00225199
0.00247815
0.00259461
0.00220123
0.00217194
0.00210457
0.0020177
0.00190742
0.00179598
0.00168951
0.001577
0.00145916
0.00136082
0.00131875
0.00132317
0.00136995
0.00147651
0.0016257
0.00182893
0.0021094
0.00240304
0.00263302
0.00274511
0.00218325
0.00215127
0.00207978
0.00199115
0.00188027
0.00176255
0.00164883
0.0015369
0.00142865
0.00133722
0.00129557
0.00130425
0.00135416
0.00147701
0.00166835
0.00190458
0.00220259
0.00252288
0.00278465
0.00291744
0.00216561
0.00213166
0.00205686
0.00196581
0.00185456
0.00173328
0.00161406
0.0015002
0.00139799
0.00131624
0.00128658
0.00132822
0.00141991
0.00156262
0.00175904
0.00197596
0.00221312
0.00246548
0.0026827
0.00280178
0.00214937
0.00211378
0.0020368
0.00194357
0.00183198
0.00171008
0.00158811
0.00147379
0.00137616
0.00130107
0.00126591
0.00129158
0.00138365
0.00154051
0.0017724
0.00205157
0.00234381
0.0026279
0.00286044
0.00298176
0.00213407
0.0020948
0.00201435
0.00191729
0.00180315
0.00167932
0.0015547
0.00143808
0.00133996
0.00126968
0.00124266
0.00127797
0.00138716
0.00155811
0.00179084
0.00206805
0.00235344
0.00262045
0.00283273
0.00293855
0.0140988
0.00948271
0.00182652
-0.00389092
-0.0052543
-0.00415224
-0.00292057
-0.00213373
-0.00162425
-0.00134261
-0.00124537
-0.00115361
-0.000987123
-0.000850908
-0.000790479
-0.000699849
-0.000569159
-0.000491814
-0.00041939
-0.000260164
-7.59993e-05
5.20465e-05
0.000143216
0.000238867
0.00035687
0.000480578
0.000579703
0.000668639
0.000772033
0.000882727
0.000983289
0.00107194
0.00116183
0.00124783
0.00132258
0.00139384
0.00146815
0.00154799
0.00163182
0.00171789
0.00181248
0.00191012
0.00200401
0.00209933
0.00218624
0.00225774
0.00233597
0.00242151
0.00249236
0.00256746
0.0026576
0.00276241
0.00289347
0.00303609
0.00316315
0.00328401
0.00340546
0.00352526
0.00363978
0.00374574
0.00387741
0.00404355
0.00420362
0.00434908
0.00452271
0.00471873
0.00490795
0.00509989
0.00530664
0.00552171
0.00573596
0.00596018
0.00619087
0.00642576
0.00666678
0.0069119
0.00716496
0.00741971
0.00768487
0.00795207
0.00822825
0.00850759
0.00879131
0.00907922
0.00937265
0.0096756
0.00998323
0.0102999
0.0106178
0.0109449
0.0112729
0.011611
0.0119535
0.0123048
0.0126673
0.0130318
0.0134215
0.0138077
0.0142402
0.014689
0.0133861
0.00934634
0.00192095
-0.0037557
-0.00517283
-0.00411141
-0.00289443
-0.00211542
-0.00161072
-0.00133197
-0.00123688
-0.00114664
-0.000981002
-0.00084542
-0.000785745
-0.000695693
-0.000565287
-0.000488355
-0.000416463
-0.000257511
-7.3451e-05
5.44045e-05
0.000145336
0.000240772
0.000358612
0.00048223
0.000581254
0.000670063
0.000773367
0.000884004
0.000984515
0.0010731
0.00116294
0.0012489
0.00132361
0.00139483
0.0014691
0.00154891
0.0016327
0.00171872
0.00181327
0.00191088
0.00200474
0.00210003
0.00218691
0.00225837
0.00233655
0.00242208
0.00249291
0.00256796
0.00265806
0.00276283
0.00289385
0.00303646
0.0031635
0.00328433
0.00340576
0.00352553
0.00364003
0.00374597
0.0038776
0.00404373
0.00420379
0.00434924
0.00452284
0.00471885
0.00490806
0.00509999
0.00530672
0.00552179
0.00573603
0.00596025
0.00619092
0.0064258
0.00666683
0.00691193
0.00716499
0.00741974
0.0076849
0.00795209
0.00822827
0.00850761
0.00879132
0.00907923
0.00937266
0.00967561
0.00998324
0.0102999
0.0106178
0.0109449
0.0112729
0.011611
0.0119535
0.0123048
0.0126673
0.0130318
0.0134215
0.0138077
0.0142402
0.0146891
0.0127096
0.00923765
0.00213357
-0.0034881
-0.0050272
-0.00405748
-0.00286872
-0.0020955
-0.00159409
-0.0013186
-0.00122622
-0.00113806
-0.000973913
-0.00083949
-0.000780838
-0.000691464
-0.000561411
-0.000484931
-0.000413554
-0.000254877
-7.09814e-05
5.66426e-05
0.000147352
0.000242592
0.000360263
0.000483765
0.000582664
0.000671344
0.000774566
0.000885146
0.0009856
0.00107412
0.00116391
0.00124984
0.0013245
0.00139568
0.00146992
0.00154969
0.00163346
0.00171944
0.00181396
0.00191154
0.00200537
0.00210064
0.00218751
0.00225893
0.00233706
0.00242258
0.00249338
0.0025684
0.00265847
0.0027632
0.00289419
0.0030368
0.00316382
0.00328462
0.00340603
0.00352577
0.00364026
0.00374617
0.00387777
0.00404389
0.00420395
0.00434937
0.00452295
0.00471896
0.00490816
0.00510007
0.00530679
0.00552186
0.00573609
0.0059603
0.00619097
0.00642585
0.00666686
0.00691197
0.00716502
0.00741977
0.00768492
0.00795212
0.00822828
0.00850763
0.00879134
0.00907924
0.00937267
0.00967562
0.00998325
0.0102999
0.0106178
0.0109449
0.0112729
0.011611
0.0119535
0.0123048
0.0126673
0.0130318
0.0134215
0.0138077
0.0142402
0.0146893
0.0120868
0.0091341
0.00239813
-0.00314936
-0.0048287
-0.003984
-0.00283393
-0.00206659
-0.00156964
-0.0012997
-0.00121117
-0.00112571
-0.000963977
-0.000831384
-0.000774002
-0.00068564
-0.00055632
-0.00048035
-0.000409472
-0.000251349
-6.79763e-05
5.93222e-05
0.00014989
0.000244936
0.000362317
0.000485574
0.000584288
0.000672821
0.000775925
0.000886397
0.000986767
0.00107521
0.00116495
0.00125082
0.0013254
0.00139654
0.00147074
0.0015505
0.00163424
0.00172019
0.00181468
0.00191223
0.00200603
0.00210129
0.00218816
0.00225952
0.00233761
0.0024231
0.00249387
0.00256885
0.00265891
0.0027636
0.00289456
0.00303716
0.00316418
0.00328496
0.00340634
0.00352604
0.00364051
0.00374638
0.00387795
0.00404407
0.00420413
0.00434951
0.00452307
0.00471909
0.00490827
0.00510016
0.00530688
0.00552194
0.00573616
0.00596036
0.00619103
0.0064259
0.00666691
0.00691201
0.00716506
0.0074198
0.00768495
0.00795214
0.0082283
0.00850765
0.00879135
0.00907926
0.00937268
0.00967563
0.00998326
0.0102999
0.0106178
0.0109449
0.0112729
0.011611
0.0119535
0.0123048
0.0126673
0.0130318
0.0134215
0.0138077
0.0142402
0.0146895
0.0114772
0.0089967
0.00266298
-0.00279242
-0.00461126
-0.00390226
-0.00279502
-0.00203146
-0.00153837
-0.00127513
-0.00119099
-0.0011086
-0.000950274
-0.000820223
-0.000764212
-0.000677242
-0.000549227
-0.000473779
-0.00040329
-0.00024622
-6.40423e-05
6.27497e-05
0.00015335
0.000248257
0.000365145
0.000487924
0.000586376
0.000674751
0.000777653
0.000887908
0.000988147
0.00107652
0.00116617
0.00125192
0.0013264
0.00139747
0.00147164
0.00155136
0.00163509
0.00172102
0.00181548
0.001913
0.00200677
0.00210204
0.00218892
0.00226024
0.00233825
0.00242369
0.00249442
0.0025694
0.00265946
0.0027641
0.00289501
0.00303761
0.00316463
0.0032854
0.00340674
0.00352639
0.00364082
0.00374666
0.00387821
0.00404432
0.00420436
0.00434969
0.00452324
0.00471925
0.00490841
0.00510029
0.00530699
0.00552205
0.00573625
0.00596044
0.0061911
0.00642596
0.00666697
0.00691206
0.0071651
0.00741984
0.00768498
0.00795217
0.00822833
0.00850767
0.00879137
0.00907927
0.0093727
0.00967564
0.00998327
0.0102999
0.0106178
0.0109449
0.0112729
0.011611
0.0119535
0.0123048
0.0126673
0.0130318
0.0134215
0.0138077
0.0142401
0.0146898
0.0108721
0.00881723
0.00291829
-0.00242778
-0.00438248
-0.0038161
-0.00275568
-0.00199427
-0.00150354
-0.00124708
-0.00116741
-0.00108811
-0.000933693
-0.000806463
-0.000751618
-0.000666198
-0.000539923
-0.000464904
-0.000394631
-0.000239157
-5.89738e-05
6.70521e-05
0.000157882
0.000252743
0.000368907
0.000490921
0.000589043
0.000677278
0.000779871
0.000889747
0.000989793
0.00107811
0.00116766
0.00125324
0.00132757
0.00139855
0.00147264
0.00155231
0.00163603
0.00172195
0.00181637
0.00191384
0.00200759
0.00210291
0.00218986
0.00226116
0.00233905
0.00242438
0.00249505
0.00257007
0.00266016
0.00276474
0.00289557
0.00303815
0.00316522
0.00328602
0.0034073
0.00352684
0.00364123
0.00374707
0.00387858
0.00404466
0.00420466
0.00434996
0.00452348
0.00471949
0.00490862
0.00510046
0.00530716
0.0055222
0.00573638
0.00596056
0.00619121
0.00642605
0.00666705
0.00691213
0.00716517
0.00741989
0.00768503
0.00795221
0.00822837
0.00850771
0.0087914
0.0090793
0.00937272
0.00967566
0.00998328
0.0102999
0.0106178
0.010945
0.0112729
0.011611
0.0119535
0.0123048
0.0126673
0.0130318
0.0134215
0.0138077
0.0142401
0.0146902
0.0102773
0.00860243
0.00316365
-0.00205561
-0.00414137
-0.00372449
-0.0027163
-0.00195646
-0.00146639
-0.00121652
-0.00114168
-0.00106573
-0.000915454
-0.000791094
-0.000737168
-0.000653232
-0.000528807
-0.000454015
-0.000383776
-0.00023032
-5.2789e-05
7.22261e-05
0.000163436
0.000258343
0.000373569
0.000494542
0.000592291
0.000680433
0.000782618
0.000891933
0.000991704
0.00107999
0.00116946
0.00125484
0.001329
0.00139988
0.00147386
0.00155342
0.00163709
0.00172299
0.00181735
0.00191474
0.00200847
0.00210388
0.00219099
0.00226234
0.00234008
0.00242522
0.00249581
0.0025709
0.00266106
0.00276557
0.00289626
0.00303882
0.003166
0.00328688
0.00340808
0.00352747
0.00364181
0.00374766
0.00387914
0.00404515
0.00420509
0.00435036
0.00452386
0.00471983
0.00490891
0.00510073
0.0053074
0.00552242
0.00573658
0.00596073
0.00619137
0.00642619
0.00666717
0.00691224
0.00716527
0.00741998
0.00768511
0.00795228
0.00822843
0.00850776
0.00879145
0.00907934
0.00937275
0.00967569
0.00998331
0.0102999
0.0106179
0.010945
0.0112729
0.011611
0.0119536
0.0123048
0.0126673
0.0130318
0.0134215
0.0138076
0.01424
0.0146906
0.0097028
0.00835722
0.00339556
-0.0016766
-0.00388605
-0.00362569
-0.00267677
-0.0019187
-0.00142734
-0.00118363
-0.00111418
-0.00104199
-0.000896057
-0.000774651
-0.000721565
-0.000639027
-0.000516426
-0.000441706
-0.000371372
-0.000220162
-4.5684e-05
7.81451e-05
0.000169809
0.000264807
0.000378934
0.000498661
0.000596012
0.00068412
0.000785835
0.00089444
0.000993844
0.0010821
0.00117147
0.00125666
0.0013307
0.00140154
0.00147542
0.00155482
0.00163838
0.0017242
0.00181844
0.00191569
0.00200937
0.00210492
0.00219231
0.00226381
0.0023414
0.00242628
0.00249678
0.00257197
0.00266223
0.00276661
0.00289707
0.00303959
0.00316698
0.00328805
0.00340915
0.00352832
0.00364262
0.00374853
0.00387997
0.00404585
0.00420571
0.00435095
0.00452441
0.00472032
0.00490934
0.00510113
0.00530777
0.00552274
0.00573686
0.00596099
0.0061916
0.00642639
0.00666735
0.0069124
0.00716541
0.0074201
0.00768522
0.00795238
0.00822852
0.00850784
0.00879152
0.0090794
0.0093728
0.00967574
0.00998335
0.0103
0.0106179
0.010945
0.0112729
0.0116111
0.0119536
0.0123048
0.0126673
0.0130318
0.0134215
0.0138076
0.0142398
0.014691
0.00915593
0.00808414
0.00360816
-0.00129279
-0.00361529
-0.0035182
-0.00263682
-0.00188152
-0.00138672
-0.00114842
-0.00108484
-0.00101692
-0.000875591
-0.000757312
-0.00070509
-0.000623906
-0.00050314
-0.000428459
-0.000357954
-0.000209069
-3.78559e-05
8.46608e-05
0.000176785
0.000271877
0.000384796
0.000503143
0.000600075
0.000688187
0.000789403
0.000897205
0.000996174
0.00108436
0.0011736
0.00125859
0.00133261
0.00140353
0.00147737
0.00155661
0.00164002
0.00172569
0.0018197
0.00191671
0.00201027
0.00210595
0.00219371
0.0022655
0.00234298
0.00242758
0.00249802
0.00257339
0.00266376
0.00276794
0.00289799
0.00304039
0.00316811
0.00328951
0.00341053
0.00352943
0.00364369
0.00374973
0.00388115
0.00404682
0.00420656
0.0043518
0.00452521
0.004721
0.00490994
0.0051017
0.00530828
0.00552319
0.00573727
0.00596136
0.00619193
0.00642668
0.00666761
0.00691263
0.00716562
0.00742029
0.00768538
0.00795252
0.00822865
0.00850796
0.00879161
0.00907948
0.00937287
0.0096758
0.00998341
0.0103
0.0106179
0.010945
0.011273
0.0116111
0.0119536
0.0123048
0.0126673
0.0130317
0.0134214
0.0138075
0.0142395
0.0146915
0.00864184
0.007787
0.00379558
-0.000907235
-0.00332832
-0.00340003
-0.00259566
-0.00184533
-0.00134498
-0.00111086
-0.00105349
-0.000990409
-0.000854065
-0.000739118
-0.0006878
-0.00060797
-0.000489119
-0.000414516
-0.00034378
-0.000197233
-2.94212e-05
9.16685e-05
0.000184225
0.000279396
0.000391033
0.00050791
0.000604396
0.000692522
0.000793221
0.000900169
0.000998662
0.00108674
0.00117578
0.00126053
0.00133457
0.00140571
0.00147964
0.00155879
0.00164206
0.00172755
0.00182123
0.00191787
0.00201119
0.00210693
0.00219511
0.00226729
0.00234471
0.00242905
0.00249952
0.00257521
0.00266578
0.00276967
0.00289908
0.00304119
0.0031693
0.00329117
0.00341217
0.00353078
0.00364504
0.00375132
0.00388272
0.00404812
0.0042077
0.00435295
0.00452631
0.00472193
0.00491077
0.00510248
0.00530899
0.00552382
0.00573784
0.00596188
0.00619239
0.00642709
0.00666798
0.00691296
0.00716592
0.00742054
0.0076856
0.00795273
0.00822883
0.00850813
0.00879176
0.00907961
0.00937298
0.0096759
0.00998349
0.0103001
0.010618
0.0109451
0.011273
0.0116111
0.0119536
0.0123048
0.0126674
0.0130317
0.0134214
0.0138074
0.0142393
0.014692
0.00816477
0.00747164
0.00395241
-0.000523723
-0.00302459
-0.00326881
-0.00255216
-0.00181056
-0.0013028
-0.00107108
-0.00101996
-0.000962339
-0.000831426
-0.00072003
-0.00066967
-0.000591232
-0.000474409
-0.000399938
-0.000328916
-0.000184715
-2.04346e-05
9.91128e-05
0.00019207
0.000287307
0.000397607
0.000512937
0.000608938
0.000697078
0.000797242
0.000903302
0.00100129
0.00108923
0.00117802
0.00126246
0.00133654