/*--------------------------------*- C++ -*----------------------------------*\
| =========                 |                                                 |
| \\      /  F ield         | OpenFOAM: The Open Source CFD Toolbox           |
|  \\    /   O peration     | Version:  2106                                  |
|   \\  /    A nd           | Website:  www.openfoam.com                      |
|    \\/     M anipulation  |                                                 |
\*---------------------------------------------------------------------------*/
FoamFile
{
    version     2.0;
    format      ascii;
    arch        "LSB;label=32;scalar=64";
    class       surfaceScalarField;
    location    "0.64";
    object      phi;
}
// * * * * * * * * * * * * * * * * * * * * * * * * * * * * * * * * * * * * * //

dimensions      [0 3 -1 0 0 0 0];

oriented        oriented;

internalField   nonuniform List<scalar> 
19000
(
1.19724e-06
8.57122e-08
1.1482e-06
4.57935e-07
1.13012e-06
-8.755e-07
1.19077e-06
1.22954e-07
1.2098e-06
-3.00358e-07
1.1882e-06
7.99318e-07
1.18027e-06
-1.38067e-07
1.17241e-06
2.53251e-07
1.17702e-06
-6.45509e-08
1.18097e-06
9.18854e-08
1.18536e-06
-1.96341e-07
1.17599e-06
-1.93899e-08
1.18532e-06
5.24536e-08
1.17285e-06
-8.37105e-08
1.18206e-06
1.56013e-07
1.16916e-06
9.9564e-08
1.17711e-06
1.64814e-07
1.15707e-06
3.51393e-08
1.1605e-06
1.39584e-07
9.47821e-08
1.1249e-06
1.25215e-06
5.78208e-08
1.20919e-06
5.00897e-07
1.19256e-06
-8.5887e-07
1.25112e-06
6.43935e-08
1.27112e-06
-3.20361e-07
1.2541e-06
8.16336e-07
1.24407e-06
-1.28031e-07
1.23751e-06
2.59807e-07
1.23879e-06
-6.58297e-08
1.24536e-06
8.53161e-08
1.24637e-06
-1.97352e-07
1.24094e-06
-1.39529e-08
1.24267e-06
5.07161e-08
1.23669e-06
-7.77302e-08
1.23388e-06
1.58826e-07
1.23672e-06
9.67226e-08
1.22563e-06
1.759e-07
1.22759e-06
3.31807e-08
1.20267e-06
1.64512e-07
8.74588e-08
1.20999e-06
1.30693e-06
3.36696e-08
1.2757e-06
5.32131e-07
1.25808e-06
-8.41252e-07
1.31387e-06
8.60563e-09
1.333e-06
-3.3949e-07
1.32587e-06
8.23468e-07
1.30847e-06
-1.10628e-07
1.30701e-06
2.61262e-07
1.30153e-06
-6.03513e-08
1.31174e-06
7.51122e-08
1.30637e-06
-1.91988e-07
1.30779e-06
-1.53679e-08
1.30224e-06
5.62658e-08
1.30194e-06
-7.74323e-08
1.29442e-06
1.6635e-07
1.30027e-06
9.08705e-08
1.28871e-06
1.87454e-07
1.2882e-06
3.36924e-08
1.27356e-06
1.79158e-07
9.77843e-08
1.26323e-06
1.36272e-06
1.50547e-08
1.34493e-06
5.49919e-07
1.32543e-06
-8.21749e-07
1.37527e-06
-4.12384e-08
1.39348e-06
-3.57703e-07
1.39478e-06
8.22172e-07
1.37093e-06
-8.67738e-08
1.37193e-06
2.6026e-07
1.36281e-06
-5.12361e-08
1.37275e-06
6.51719e-08
1.36486e-06
-1.84092e-07
1.36908e-06
-1.95937e-08
1.36272e-06
6.26284e-08
1.36245e-06
-7.71593e-08
1.35863e-06
1.70168e-07
1.36095e-06
8.85513e-08
1.35399e-06
1.94411e-07
1.34842e-06
3.92637e-08
1.34071e-06
1.86863e-07
1.13373e-07
1.32512e-06
1.42064e-06
2.77014e-09
1.4146e-06
5.55954e-07
1.39394e-06
-8.01085e-07
1.43479e-06
-8.20914e-08
1.45187e-06
-3.74784e-07
1.45809e-06
8.15959e-07
1.43179e-06
-6.0476e-08
1.43197e-06
2.60075e-07
1.42312e-06
-4.23831e-08
1.4307e-06
5.75965e-08
1.42356e-06
-1.76959e-07
1.42796e-06
-2.39957e-08
1.42326e-06
6.733e-08
1.42167e-06
-7.55665e-08
1.42103e-06
1.70811e-07
1.42124e-06
8.83355e-08
1.41653e-06
1.99121e-07
1.40887e-06
4.69261e-08
1.4038e-06
1.91935e-07
1.29589e-07
1.38758e-06
1.48219e-06
-3.74688e-09
1.484e-06
5.54149e-07
1.46421e-06
-7.81297e-07
1.49459e-06
-1.12468e-07
1.50951e-06
-3.89709e-07
1.51771e-06
8.07765e-07
1.49324e-06
-3.60126e-08
1.49163e-06
2.61685e-07
1.48484e-06
-3.55888e-08
1.49068e-06
5.17587e-08
1.48498e-06
-1.71266e-07
1.48898e-06
-2.79958e-08
1.48561e-06
7.07003e-08
1.48302e-06
-7.29692e-08
1.4831e-06
1.70726e-07
1.48248e-06
8.89574e-08
1.47918e-06
2.02419e-07
1.47051e-06
5.55997e-08
1.4677e-06
1.9474e-07
1.45717e-07
1.45157e-06
1.54857e-06
-6.1044e-09
1.55424e-06
5.48483e-07
1.53726e-06
-7.64315e-07
1.55765e-06
-1.32864e-07
1.56874e-06
-4.00796e-07
1.57752e-06
7.98981e-07
1.55739e-06
-1.58772e-08
1.55517e-06
2.639e-07
1.55036e-06
-3.07727e-08
1.55579e-06
4.63288e-08
1.55091e-06
-1.66384e-07
1.55453e-06
-3.16249e-08
1.55189e-06
7.33419e-08
1.54857e-06
-6.96416e-08
1.54816e-06
1.71128e-07
1.5469e-06
9.02215e-08
1.54507e-06
2.04251e-07
1.53561e-06
6.50613e-08
1.53511e-06
1.95232e-07
1.61286e-07
1.51955e-06
1.62017e-06
-6.14398e-09
1.62706e-06
5.41587e-07
1.6136e-06
-7.50856e-07
1.62599e-06
-1.45249e-07
1.63183e-06
-4.06637e-07
1.64088e-06
7.89929e-07
1.62557e-06
-5.68745e-10
1.62451e-06
2.64963e-07
1.621e-06
-2.72605e-08
1.6267e-06
4.06254e-08
1.62187e-06
-1.61555e-07
1.62523e-06
-3.49853e-08
1.62299e-06
7.55859e-08
1.61919e-06
-6.58366e-08
1.61823e-06
1.72079e-07
1.61625e-06
9.22056e-08
1.61596e-06
2.04536e-07
1.6057e-06
7.53216e-08
1.60726e-06
1.93676e-07
1.7588e-07
1.59267e-06
1.69669e-06
-5.25851e-09
1.70372e-06
5.34552e-07
1.69318e-06
-7.40313e-07
1.70003e-06
-1.521e-07
1.70031e-06
-4.06919e-07
1.70975e-06
7.80496e-07
1.69853e-06
1.06534e-08
1.69975e-06
2.63739e-07
1.69693e-06
-2.44366e-08
1.70295e-06
3.4603e-08
1.69761e-06
-1.56213e-07
1.70082e-06
-3.81964e-08
1.69879e-06
7.76101e-08
1.69478e-06
-6.18278e-08
1.69381e-06
1.73051e-07
1.69107e-06
9.49466e-08
1.69235e-06
2.0326e-07
1.68127e-06
8.63963e-08
1.68437e-06
1.90573e-07
1.89167e-07
1.67109e-06
1.77767e-06
-4.20603e-09
1.78477e-06
5.27451e-07
1.77579e-06
-7.31334e-07
1.77924e-06
-1.55543e-07
1.7748e-06
-4.02488e-07
1.78491e-06
7.70389e-07
1.77659e-06
1.89765e-08
1.78035e-06
2.59976e-07
1.77771e-06
-2.17954e-08
1.78387e-06
2.84389e-08
1.77767e-06
-1.50004e-07
1.7808e-06
-4.1327e-08
1.7789e-06
7.95083e-08
1.77486e-06
-5.77888e-08
1.77451e-06
1.73404e-07
1.77104e-06
9.84091e-08
1.77385e-06
2.00457e-07
1.76207e-06
9.81744e-08
1.76613e-06
1.86517e-07
2.00823e-07
1.75447e-06
1.86283e-06
-3.28508e-09
1.87035e-06
5.19933e-07
1.86149e-06
-7.22483e-07
1.86292e-06
-1.56964e-07
1.85522e-06
-3.94796e-07
1.86644e-06
7.59174e-07
1.85988e-06
2.55358e-08
1.86583e-06
2.5402e-07
1.86292e-06
-1.88778e-08
1.86906e-06
2.22989e-08
1.86183e-06
-1.42774e-07
1.86485e-06
-4.43484e-08
1.86304e-06
8.1312e-08
1.85898e-06
-5.37294e-08
1.85972e-06
1.72666e-07
1.8556e-06
1.02531e-07
1.85984e-06
1.96214e-07
1.84765e-06
1.10368e-07
1.85202e-06
1.82149e-07
2.10458e-07
1.84238e-06
1.95212e-06
-2.56825e-09
1.96046e-06
5.11593e-07
1.95062e-06
-7.12645e-07
1.95073e-06
-1.5707e-07
1.9412e-06
-3.85261e-07
1.95399e-06
7.46378e-07
1.94833e-06
3.12014e-08
1.95592e-06
2.46422e-07
1.95234e-06
-1.52937e-08
1.95835e-06
1.62861e-08
1.95011e-06
-1.34526e-07
1.95291e-06
-4.7151e-08
1.95122e-06
8.30016e-08
1.94701e-06
-4.95185e-08
1.94907e-06
1.706e-07
1.94434e-06
1.0726e-07
1.94986e-06
1.90704e-07
1.93767e-06
1.22557e-07
1.94169e-06
1.78122e-07
2.17664e-07
1.93449e-06
2.04566e-06
-2.04073e-09
2.05512e-06
5.02139e-07
2.04364e-06
-7.01167e-07
2.04273e-06
-1.56167e-07
2.03237e-06
-3.74898e-07
2.04711e-06
7.3164e-07
2.04176e-06
3.65505e-08
2.05051e-06
2.37667e-07
2.04601e-06
-1.07865e-08
2.05184e-06
1.04515e-08
2.04269e-06
-1.25371e-07
2.04512e-06
-4.95864e-08
2.04361e-06
8.45107e-08
2.03904e-06
-4.49455e-08
2.04249e-06
1.67153e-07
2.0372e-06
1.12544e-07
2.04369e-06
1.84214e-07
2.03201e-06
1.34243e-07
2.03509e-06
1.75035e-07
2.2214e-07
2.03062e-06
2.14362e-06
-1.65514e-09
2.15431e-06
4.91447e-07
2.14096e-06
-6.87817e-07
2.1392e-06
-1.54409e-07
2.12854e-06
-3.64242e-07
2.14537e-06
7.14818e-07
2.13999e-06
4.19233e-08
2.14959e-06
2.28072e-07
2.14407e-06
-5.26494e-09
2.14971e-06
4.81374e-09
2.13982e-06
-1.15489e-07
2.14174e-06
-5.15045e-08
2.14052e-06
8.57287e-08
2.13537e-06
-3.9789e-08
2.14011e-06
1.62413e-07
2.13437e-06
1.18276e-07
2.14143e-06
1.77161e-07
2.13074e-06
1.44928e-07
2.13255e-06
1.73226e-07
2.23919e-07
2.13077e-06
2.24619e-06
-1.35399e-09
2.25809e-06
4.79543e-07
2.24294e-06
-6.7267e-07
2.24048e-06
-1.51947e-07
2.2297e-06
-3.5346e-07
2.24854e-06
6.95979e-07
2.24296e-06
4.74997e-08
2.25323e-06
2.17802e-07
2.24675e-06
1.21759e-09
2.25218e-06
-6.18345e-10
2.24179e-06
-1.05101e-07
2.24306e-06
-5.27681e-08
2.24228e-06
8.6508e-08
2.23636e-06
-3.38699e-08
2.24221e-06
1.56566e-07
2.23621e-06
1.24271e-07
2.24332e-06
1.70054e-07
2.23407e-06
1.54176e-07
2.23451e-06
1.72785e-07
2.23342e-07
2.23509e-06
2.3536e-06
-1.0834e-09
2.36659e-06
4.66556e-07
2.34989e-06
-6.55963e-07
2.34689e-06
-1.48953e-07
2.33595e-06
-3.42517e-07
2.35658e-06
6.75344e-07
2.35072e-06
5.33653e-08
2.36159e-06
2.06926e-07
2.3543e-06
8.51178e-09
2.35951e-06
-5.82763e-09
2.34886e-06
-9.44526e-08
2.34935e-06
-5.32568e-08
2.34917e-06
8.66919e-08
2.34239e-06
-2.70943e-08
2.34908e-06
1.49873e-07
2.34308e-06
1.30278e-07
2.34971e-06
1.6342e-07
2.34222e-06
1.61667e-07
2.34138e-06
1.7362e-07
2.20938e-07
2.34379e-06
2.46611e-06
-8.01162e-10
2.48002e-06
4.5265e-07
2.46204e-06
-6.37981e-07
2.45869e-06
-1.45604e-07
2.44748e-06
-3.31313e-07
2.46963e-06
6.53195e-07
2.46344e-06
5.95547e-08
2.47488e-06
1.95492e-07
2.46697e-06
1.64191e-08
2.47192e-06
-1.07761e-08
2.46127e-06
-8.38008e-08
2.46088e-06
-5.28714e-08
2.46141e-06
8.61656e-08
2.45381e-06
-1.94903e-08
2.46102e-06
1.4266e-07
2.45528e-06
1.36014e-07
2.46098e-06
1.57721e-07
2.4554e-06
1.67252e-07
2.45353e-06
1.75483e-07
2.17325e-07
2.45715e-06
2.58397e-06
-4.79537e-10
2.59863e-06
4.37989e-07
2.57964e-06
-6.18988e-07
2.57608e-06
-1.42048e-07
2.56454e-06
-3.1977e-07
2.58791e-06
6.29823e-07
2.5814e-06
6.6072e-08
2.59333e-06
1.83555e-07
2.58502e-06
2.4727e-08
2.58965e-06
-1.53984e-08
2.57925e-06
-7.34015e-08
2.57791e-06
-5.15366e-08
2.5792e-06
8.48809e-08
2.57091e-06
-1.12001e-08
2.57828e-06
1.35289e-07
2.57308e-06
1.41215e-07
2.57754e-06
1.53254e-07
2.5738e-06
1.70997e-07
2.57128e-06
1.78003e-07
2.13116e-07
2.57549e-06
2.70745e-06
-1.05265e-10
2.72273e-06
4.22718e-07
2.70294e-06
-5.99205e-07
2.69928e-06
-1.38385e-07
2.68737e-06
-3.07862e-07
2.7117e-06
6.05495e-07
2.70488e-06
7.28948e-08
2.71723e-06
1.71206e-07
2.70873e-06
3.32256e-08
2.71293e-06
-1.96038e-08
2.70302e-06
-6.34855e-08
2.7007e-06
-4.92162e-08
2.70271e-06
8.2866e-08
2.69396e-06
-2.44412e-09
2.70111e-06
1.28131e-07
2.69666e-06
1.45667e-07
2.69979e-06
1.50124e-07
2.69763e-06
1.73159e-07
2.69489e-06
1.8074e-07
2.08831e-07
2.69918e-06
2.83684e-06
3.22082e-10
2.8526e-06
4.06964e-07
2.8322e-06
-5.78813e-07
2.82848e-06
-1.34665e-07
2.81624e-06
-2.9562e-07
2.84129e-06
5.80441e-07
2.83421e-06
7.9976e-08
2.84686e-06
1.5856e-07
2.83836e-06
4.17212e-08
2.84205e-06
-2.32852e-08
2.8328e-06
-5.42396e-08
2.82951e-06
-4.5923e-08
2.83215e-06
8.02238e-08
2.82318e-06
6.52589e-09
2.82981e-06
1.21495e-07
2.82623e-06
1.49253e-07
2.82808e-06
1.48271e-07
2.82716e-06
1.7408e-07
2.82461e-06
1.83287e-07
2.04822e-07
2.82862e-06
2.97242e-06
7.92851e-10
2.98855e-06
3.9084e-07
2.9677e-06
-5.57967e-07
2.96392e-06
-1.30883e-07
2.95142e-06
-2.83116e-07
2.977e-06
5.54855e-07
2.96973e-06
8.72464e-08
2.98255e-06
1.45746e-07
2.97423e-06
5.00388e-08
2.97728e-06
-2.63331e-08
2.96883e-06
-4.57883e-08
2.96462e-06
-4.1721e-08
2.96774e-06
7.7105e-08
2.95879e-06
1.54783e-08
2.96468e-06
1.15604e-07
2.96198e-06
1.5195e-07
2.96273e-06
1.47524e-07
2.96271e-06
1.741e-07
2.96066e-06
1.85339e-07
2.01251e-07
2.96423e-06
3.11451e-06
1.29054e-09
3.1309e-06
3.7445e-07
3.10974e-06
-5.36814e-07
3.10585e-06
-1.2699e-07
3.09318e-06
-2.70448e-07
3.11914e-06
5.28902e-07
3.11176e-06
9.46223e-08
3.12461e-06
1.32896e-07
3.11662e-06
5.80276e-08
3.11894e-06
-2.86545e-08
3.11134e-06
-3.81894e-08
3.10634e-06
-3.6718e-08
3.10976e-06
7.36894e-08
3.10103e-06
2.42087e-08
3.10602e-06
1.10613e-07
3.10418e-06
1.53791e-07
3.10402e-06
1.47678e-07
3.10462e-06
1.73499e-07
3.10324e-06
1.86723e-07
1.98099e-07
3.10639e-06
3.26341e-06
1.7943e-09
3.27996e-06
3.57899e-07
3.25865e-06
-5.15502e-07
3.25456e-06
-1.22904e-07
3.24183e-06
-2.5772e-07
3.26801e-06
5.02722e-07
3.26062e-06
1.02018e-07
3.27338e-06
1.20131e-07
3.26585e-06
6.55632e-08
3.26737e-06
-3.01812e-08
3.26063e-06
-3.14506e-08
3.25495e-06
-3.10334e-08
3.25849e-06
7.01463e-08
3.25014e-06
3.25638e-08
3.25412e-06
1.06629e-07
3.25311e-06
1.54806e-07
3.25224e-06
1.48545e-07
3.25325e-06
1.72485e-07
3.25259e-06
1.87386e-07
1.9524e-07
3.25545e-06
3.41945e-06
2.28041e-09
3.43605e-06
3.41291e-07
3.41474e-06
-4.94192e-07
3.41036e-06
-1.18523e-07
3.39768e-06
-2.45033e-07
3.42397e-06
4.76431e-07
3.41663e-06
1.09357e-07
3.42921e-06
1.07551e-07
3.42222e-06
7.25486e-08
3.42291e-06
-3.08702e-08
3.41701e-06
-2.55531e-08
3.41076e-06
-2.47773e-08
3.41428e-06
6.66245e-08
3.40641e-06
4.04291e-08
3.4093e-06
1.03746e-07
3.40908e-06
1.55021e-07
3.40771e-06
1.49919e-07
3.40896e-06
1.71234e-07
3.40899e-06
1.87356e-07
1.92517e-07
3.41171e-06
3.58297e-06
2.72296e-09
3.59952e-06
3.24739e-07
3.57838e-06
-4.73054e-07
3.57361e-06
-1.13747e-07
3.56104e-06
-2.32467e-07
3.58735e-06
4.50124e-07
3.58012e-06
1.16586e-07
3.59244e-06
9.52348e-08
3.58608e-06
7.89061e-08
3.5859e-06
-3.06897e-08
3.58082e-06
-2.04794e-08
3.57407e-06
-1.80278e-08
3.57746e-06
6.32418e-08
3.57015e-06
4.77379e-08
3.57188e-06
1.02018e-07
3.57239e-06
1.54505e-07
3.57077e-06
1.51538e-07
3.5721e-06
1.69909e-07
3.57276e-06
1.8669e-07
1.89831e-07
3.57545e-06
3.75433e-06
3.09421e-09
3.77071e-06
3.08366e-07
3.74992e-06
-4.52268e-07
3.74466e-06
-1.08487e-07
3.73227e-06
-2.20076e-07
3.75852e-06
4.23874e-07
3.75143e-06
1.23672e-07
3.76343e-06
8.32359e-08
3.75777e-06
8.4565e-08
3.75668e-06
-2.95913e-08
3.75245e-06
-1.62506e-08
3.74524e-06
-1.08189e-08
3.74837e-06
6.01056e-08
3.74167e-06
5.44384e-08
3.74222e-06
1.01476e-07
3.74334e-06
1.53381e-07
3.74178e-06
1.53101e-07
3.74306e-06
1.68625e-07
3.7443e-06
1.85451e-07
1.87162e-07
3.74697e-06
3.93392e-06
3.36661e-09
3.94999e-06
2.92295e-07
3.92973e-06
-4.32012e-07
3.92392e-06
-1.02675e-07
3.91172e-06
-2.07879e-07
3.93788e-06
3.97719e-07
3.93093e-06
1.30619e-07
3.94257e-06
7.15971e-08
3.9377e-06
8.94361e-08
3.93559e-06
-2.74786e-08
3.93228e-06
-1.29441e-08
3.92461e-06
-3.15126e-09
3.92737e-06
5.73509e-08
3.92137e-06
6.04325e-08
3.92073e-06
1.02118e-07
3.92226e-06
1.51855e-07
3.92105e-06
1.54304e-07
3.92225e-06
1.67428e-07
3.92399e-06
1.8371e-07
1.84535e-07
3.92662e-06
4.1221e-06
3.51326e-09
4.13775e-06
2.76649e-07
4.11819e-06
-4.12449e-07
4.11179e-06
-9.62803e-08
4.09977e-06
-1.95859e-07
4.12582e-06
3.71665e-07
4.11899e-06
1.37457e-07
4.13023e-06
6.03568e-08
4.12626e-06
9.33982e-08
4.12298e-06
-2.41994e-08
4.12071e-06
-1.06682e-08
4.1126e-06
4.95669e-09
4.11476e-06
5.51915e-08
4.10961e-06
6.55778e-08
4.10792e-06
1.03812e-07
4.10955e-06
1.50228e-07
4.10893e-06
1.5492e-07
4.11008e-06
1.66277e-07
4.11224e-06
1.81556e-07
1.81948e-07
4.11482e-06
4.31931e-06
3.50939e-09
4.33441e-06
2.61549e-07
4.31567e-06
-3.93712e-07
4.30872e-06
-8.93278e-08
4.2968e-06
-1.83946e-07
4.32279e-06
3.45684e-07
4.31601e-06
1.44235e-07
4.32679e-06
4.95783e-08
4.32391e-06
9.62753e-08
4.31927e-06
-1.95635e-08
4.3181e-06
-9.49521e-09
4.30965e-06
1.3408e-08
4.31089e-06
5.39521e-08
4.30674e-06
6.97235e-08
4.30427e-06
1.06284e-07
4.30571e-06
1.4879e-07
4.30576e-06
1.54873e-07
4.30698e-06
1.65047e-07
4.30945e-06
1.79093e-07
1.79352e-07
4.31204e-06
4.52595e-06
3.33665e-09
4.5404e-06
2.47094e-07
4.52257e-06
-3.75884e-07
4.51516e-06
-8.19126e-08
4.50324e-06
-1.72025e-07
4.52919e-06
3.19727e-07
4.52244e-06
1.50984e-07
4.53264e-06
3.93849e-08
4.53108e-06
9.78381e-08
4.52491e-06
-1.34011e-08
4.52475e-06
-9.32983e-09
4.51628e-06
2.18784e-08
4.51615e-06
5.40762e-08
4.51309e-06
7.2791e-08
4.51025e-06
1.09118e-07
4.51129e-06
1.47756e-07
4.5119e-06
1.54261e-07
4.51338e-06
1.63566e-07
4.51605e-06
1.7642e-07
1.76669e-07
4.51874e-06
4.74247e-06
2.98363e-09
4.7562e-06
2.33357e-07
4.73931e-06
-3.58987e-07
4.73161e-06
-7.42124e-08
4.71951e-06
-1.59928e-07
4.7455e-06
2.93741e-07
4.73878e-06
1.57703e-07
4.74818e-06
2.99872e-08
4.74819e-06
9.78209e-08
4.74042e-06
-5.6309e-09
4.74096e-06
-9.8629e-09
4.73298e-06
2.98553e-08
4.73111e-06
5.59438e-08
4.72897e-06
7.49298e-08
4.7263e-06
1.1179e-07
4.72685e-06
1.47203e-07
4.72781e-06
1.53307e-07
4.72967e-06
1.61701e-07
4.73253e-06
1.73566e-07
1.7386e-07
4.73534e-06
4.96933e-06
2.44948e-09
4.98231e-06
2.20375e-07
4.96629e-06
-3.42967e-07
4.95858e-06
-6.64934e-08
4.94609e-06
-1.47447e-07
4.97214e-06
2.67692e-07
4.96555e-06
1.643e-07
4.97382e-06
2.17169e-08
4.97568e-06
9.59538e-08
4.96639e-06
3.66608e-09
4.96707e-06
-1.05441e-08
4.96017e-06
3.67502e-08
4.95646e-06
5.9661e-08
4.95483e-06
7.65555e-08
4.9528e-06
1.13825e-07
4.95299e-06
1.47013e-07
4.954e-06
1.52288e-07
4.95628e-06
1.59423e-07
4.95937e-06
1.70482e-07
1.70925e-07
4.9623e-06
5.20702e-06
1.74605e-09
5.21926e-06
2.08134e-07
5.20398e-06
-3.27685e-07
5.1966e-06
-5.91172e-08
5.18349e-06
-1.34337e-07
5.20959e-06
2.41592e-07
5.20331e-06
1.7058e-07
5.21e-06
1.50262e-08
5.21396e-06
9.19935e-08
5.20341e-06
1.42156e-08
5.20351e-06
-1.0644e-08
5.19821e-06
4.20558e-08
5.19292e-06
6.49464e-08
5.19119e-06
7.82828e-08
5.1901e-06
1.14919e-07
5.19021e-06
1.46903e-07
5.19107e-06
1.51425e-07
5.19365e-06
1.56848e-07
5.19706e-06
1.67067e-07
1.67862e-07
5.20013e-06
5.45604e-06
8.99312e-10
5.4676e-06
1.9657e-07
5.45283e-06
-3.12916e-07
5.44625e-06
-5.25337e-08
5.43225e-06
-1.2034e-07
5.45831e-06
2.1553e-07
5.45265e-06
1.76238e-07
5.45725e-06
1.04262e-08
5.46341e-06
8.5837e-08
5.45212e-06
2.55047e-08
5.45088e-06
-9.39948e-09
5.44739e-06
4.55437e-08
5.44112e-06
7.12153e-08
5.43878e-06
8.06243e-08
5.43864e-06
1.15054e-07
5.439e-06
1.46544e-07
5.43964e-06
1.50785e-07
5.44229e-06
1.54205e-07
5.44608e-06
1.63271e-07
1.64602e-07
5.44934e-06
5.71691e-06
-5.01014e-11
5.72791e-06
1.85563e-07
5.71334e-06
-2.98346e-07
5.70807e-06
-4.72601e-08
5.69295e-06
-1.05222e-07
5.71878e-06
1.89704e-07
5.71415e-06
1.80864e-07
5.71618e-06
8.40147e-09
5.72439e-06
7.76215e-08
5.71307e-06
3.6828e-08
5.70987e-06
-6.1949e-09
5.7081e-06
4.73087e-08
5.7016e-06
7.77182e-08
5.69835e-06
8.38755e-08
5.69892e-06
1.14478e-07
5.69982e-06
1.45649e-07
5.70032e-06
1.50283e-07
5.7028e-06
1.51728e-07
5.70691e-06
1.59162e-07
1.61033e-07
5.71048e-06
5.99019e-06
-1.04526e-09
6.0008e-06
1.74947e-07
5.98605e-06
-2.83589e-07
5.9826e-06
-4.38085e-08
5.96624e-06
-8.8868e-08
5.99146e-06
1.64481e-07
5.98842e-06
1.8391e-07
5.98749e-06
9.32838e-09
5.99731e-06
6.78072e-08
5.98678e-06
4.73561e-08
5.98126e-06
-6.81989e-10
5.98085e-06
4.7721e-08
5.97487e-06
8.37035e-08
5.97066e-06
8.80805e-08
5.97154e-06
1.13603e-07
5.97314e-06
1.44048e-07
5.97369e-06
1.4973e-07
5.97585e-06
1.49566e-07
5.98008e-06
1.54937e-07
1.57049e-07
5.98406e-06
6.27646e-06
-2.01644e-09
6.28688e-06
1.64529e-07
6.2715e-06
-2.68211e-07
6.27027e-06
-4.25815e-08
6.25281e-06
-7.14048e-08
6.2769e-06
1.40392e-07
6.27604e-06
1.84772e-07
6.27201e-06
1.33553e-08
6.28264e-06
5.71804e-08
6.27366e-06
5.63338e-08
6.26595e-06
7.02506e-09
6.26614e-06
4.75317e-08
6.26136e-06
8.84867e-08
6.25641e-06
9.30237e-08
6.25716e-06
1.12861e-07
6.25949e-06
1.41714e-07
6.26032e-06
1.48898e-07
6.26214e-06
1.47745e-07
6.26623e-06
1.50844e-07
1.52643e-07
6.27064e-06
6.57634e-06
-2.88322e-09
6.58675e-06
1.54112e-07
6.57035e-06
-2.51804e-07
6.57147e-06
-4.37013e-08
6.55344e-06
-5.33766e-08
6.57569e-06
1.18138e-07
6.57751e-06
1.8295e-07
6.57057e-06
2.0304e-08
6.58097e-06
4.67721e-08
6.57413e-06
6.31738e-08
6.56467e-06
1.64853e-08
6.56479e-06
4.74193e-08
6.56147e-06
9.18068e-08
6.55623e-06
9.82572e-08
6.55651e-06
1.12584e-07
6.55944e-06
1.38779e-07
6.56077e-06
1.47572e-07
6.56234e-06
1.46176e-07
6.56608e-06
1.47103e-07
1.47938e-07
6.57079e-06
6.89047e-06
-3.565e-09
6.90105e-06
1.43538e-07
6.88343e-06
-2.34185e-07
6.88661e-06
-4.68839e-08
6.86892e-06
-3.56891e-08
6.88847e-06
9.85855e-08
6.8932e-06
1.78221e-07
6.88399e-06
2.95147e-08
6.89305e-06
3.7716e-08
6.88867e-06
6.75523e-08
6.87821e-06
2.69481e-08
6.87762e-06
4.80057e-08
6.87576e-06
9.36686e-08
6.87069e-06
1.03328e-07
6.87036e-06
1.12913e-07
6.87365e-06
1.35492e-07
6.87562e-06
1.45596e-07
6.87713e-06
1.44673e-07
6.88038e-06
1.43846e-07
1.43179e-07
6.88514e-06
7.21955e-06
-3.98276e-09
7.23038e-06
1.32713e-07
7.21163e-06
-2.15431e-07
7.21626e-06
-5.15193e-08
7.20002e-06
-1.94517e-08
7.21607e-06
8.25413e-08
7.22347e-06
1.7082e-07
7.21306e-06
3.99204e-08
7.21975e-06
3.10331e-08
7.21783e-06
6.94638e-08
7.20721e-06
3.75724e-08
7.20558e-06
4.963e-08
7.20492e-06
9.43301e-08
7.20038e-06
1.07875e-07
7.19944e-06
1.13854e-07
7.2028e-06
1.32124e-07
7.20548e-06
1.42921e-07
7.20715e-06
1.43003e-07
7.20993e-06
1.41063e-07
1.38684e-07
7.21443e-06
7.56431e-06
-4.06897e-09
7.57544e-06
1.21587e-07
7.5558e-06
-1.95789e-07
7.56106e-06
-5.67821e-08
7.54739e-06
-5.7844e-09
7.55939e-06
7.05408e-08
7.56883e-06
1.6138e-07
7.55838e-06
5.03688e-08
7.56227e-06
2.71511e-08
7.56219e-06
6.95359e-08
7.55217e-06
4.75954e-08
7.54954e-06
5.22641e-08
7.54973e-06
9.41385e-08
7.54595e-06
1.11657e-07
7.54449e-06
1.15306e-07
7.54768e-06
1.28937e-07
7.551e-06
1.39601e-07
7.55304e-06
1.40963e-07
7.55552e-06
1.3858e-07
1.34734e-07
7.55947e-06
7.92551e-06
-3.7698e-09
7.93698e-06
1.10118e-07
7.91679e-06
-1.756e-07
7.92174e-06
-6.17277e-08
7.91152e-06
4.43306e-09
7.91946e-06
6.25953e-08
7.93002e-06
1.50826e-07
7.92051e-06
5.98748e-08
7.92161e-06
2.60513e-08
7.92258e-06
6.85712e-08
7.9136e-06
5.65692e-08
7.91021e-06
5.56608e-08
7.911e-06
9.33504e-08
7.90811e-06
1.14547e-07
7.90627e-06
1.1714e-07
7.90908e-06
1.26129e-07
7.91291e-06
1.35772e-07
7.91544e-06
1.38432e-07
7.9179e-06
1.36125e-07
1.31405e-07
7.92122e-06
8.30397e-06
-3.05529e-09
8.31578e-06
9.83021e-08
8.29547e-06
-1.55283e-07
8.29908e-06
-6.5339e-08
8.2928e-06
1.07069e-08
8.29734e-06
5.80554e-08
8.30782e-06
1.40353e-07
8.29991e-06
6.77849e-08
8.29873e-06
2.72276e-08
8.29995e-06
6.73514e-08
8.29211e-06
6.44109e-08
8.28826e-06
5.95098e-08
8.28953e-06
9.20784e-08
8.28763e-06
1.16448e-07
8.28559e-06
1.19179e-07
8.28784e-06
1.2388e-07
8.29199e-06
1.31622e-07
8.29506e-06
1.35363e-07
8.29769e-06
1.33498e-07
1.28471e-07
8.30062e-06
8.70052e-06
-1.91794e-09
8.71266e-06
8.61624e-08
8.69264e-06
-1.35257e-07
8.69404e-06
-6.67434e-08
8.69168e-06
1.30666e-08
8.69407e-06
5.56661e-08
8.70321e-06
1.31219e-07
8.69705e-06
7.39435e-08
8.69451e-06
2.97668e-08
8.69538e-06
6.64768e-08
8.68856e-06
7.12381e-08
8.68441e-06
6.36602e-08
8.68607e-06
9.04153e-08
8.6853e-06
1.17214e-07
8.68329e-06
1.21197e-07
8.68484e-06
1.22323e-07
8.68908e-06
1.27383e-07
8.69271e-06
1.31734e-07
8.69557e-06
1.30639e-07
1.25576e-07
8.69846e-06
9.11609e-06
-3.8944e-10
9.1284e-06
7.38532e-08
9.10916e-06
-1.16013e-07
9.10784e-06
-6.54258e-08
9.10876e-06
1.21422e-08
9.11048e-06
5.39498e-08
9.11748e-06
1.24215e-07
9.11261e-06
7.88218e-08
9.10953e-06
3.28447e-08
9.11004e-06
6.5963e-08
9.10397e-06
7.73052e-08
9.09946e-06
6.81761e-08
9.10136e-06
8.85105e-08
9.10191e-06
1.16663e-07
9.10019e-06
1.22921e-07
9.10104e-06
1.21471e-07
9.10506e-06
1.23359e-07
9.10926e-06
1.27535e-07
9.11236e-06
1.27543e-07
1.22513e-07
9.11542e-06
9.55161e-06
1.46294e-09
9.56385e-06
6.16108e-08
9.54587e-06
-9.80331e-08
9.54175e-06
-6.13109e-08
9.5448e-06
9.095e-09
9.54722e-06
5.15298e-08
9.55195e-06
1.19491e-07
9.54748e-06
8.32876e-08
9.54442e-06
3.59037e-08
9.54492e-06
6.54687e-08
9.53943e-06
8.27953e-08
9.5344e-06
7.32041e-08
9.53629e-06
8.66148e-08
9.5382e-06
1.14757e-07
9.53714e-06
1.23984e-07
9.53743e-06
1.21179e-07
9.5409e-06
1.19888e-07
9.54558e-06
1.22853e-07
9.549e-06
1.2413e-07
1.1931e-07
9.5522e-06
1.00081e-05
3.53062e-09
1.00199e-05
4.97761e-08
1.00037e-05
-8.18001e-08
9.99698e-06
-5.46208e-08
1.00008e-05
5.27028e-09
1.00049e-05
4.74413e-08
1.00079e-05
1.1647e-07
1.00029e-05
8.82672e-08
9.99989e-06
3.89498e-08
1.00008e-05
6.45766e-08
9.99606e-06
8.75176e-08
9.99043e-06
7.88299e-08
9.99184e-06
8.52019e-08
9.99495e-06
1.11655e-07
9.99496e-06
1.23973e-07
9.99498e-06
1.21161e-07
9.99767e-06
1.17192e-07
1.00025e-05
1.17993e-07
1.00065e-05
1.20172e-07
1.16103e-07
1.00097e-05
1.04865e-05
5.66691e-09
1.04975e-05
3.87821e-08
1.04835e-05
-6.78259e-08
1.04746e-05
-4.5703e-08
1.0478e-05
1.90959e-09
1.0484e-05
4.14175e-08
1.04865e-05
1.13911e-07
1.04804e-05
9.44043e-08
1.04769e-05
4.24777e-08
1.04784e-05
6.30138e-08
1.04748e-05
9.11347e-08
1.04688e-05
8.48811e-08
1.04692e-05
8.48113e-08
1.04731e-05
1.07698e-07
1.04745e-05
1.22648e-07
1.04746e-05
1.20984e-07
1.04766e-05
1.15252e-07
1.04811e-05
1.13442e-07
1.04858e-05
1.15505e-07
1.1288e-07
1.0489e-05
1.0988e-05
7.70264e-09
1.09977e-05
2.90589e-08
1.09864e-05
-5.6481e-08
1.09758e-05
-3.51049e-08
1.09776e-05
6.56115e-11
1.09853e-05
3.37246e-08
1.09887e-05
1.10528e-07
1.09813e-05
1.01754e-07
1.09766e-05
4.71687e-08
1.09788e-05
6.08497e-08
1.09767e-05
9.32562e-08
1.09706e-05
9.09898e-08
1.09696e-05
8.57789e-08
1.09739e-05
1.03436e-07
1.09765e-05
1.20026e-07
1.09773e-05
1.20224e-07
1.09787e-05
1.13765e-07
1.09826e-05
1.09607e-07
1.09877e-05
1.10356e-07
1.09291e-07
1.09913e-05
1.15136e-05
9.4685e-09
1.15217e-05
2.09688e-08
1.15131e-05
-4.78553e-08
1.15016e-05
-2.36157e-08
1.15012e-05
4.69192e-10
1.15098e-05
2.50784e-08
1.1515e-05
1.05387e-07
1.15071e-05
1.09644e-07
1.15006e-05
5.3658e-08
1.15028e-05
5.86573e-08
1.15026e-05
9.34714e-08
1.14968e-05
9.67101e-08
1.14946e-05
8.80197e-08
1.14984e-05
9.95964e-08
1.15022e-05
1.16289e-07
1.15037e-05
1.1866e-07
1.15052e-05
1.12304e-07
1.15082e-05
1.06591e-07
1.15133e-05
1.05278e-07
1.05021e-07
1.15176e-05
1.20645e-05
1.07986e-08
1.20706e-05
1.48297e-08
1.20646e-05
-4.1817e-08
1.20531e-05
-1.21531e-08
1.20501e-05
3.47056e-09
1.20586e-05
1.65753e-08
1.20661e-05
9.79e-08
1.20588e-05
1.17009e-07
1.20502e-05
6.22179e-08
1.20517e-05
5.72e-08
1.20532e-05
9.18887e-08
1.20486e-05
1.01294e-07
1.20454e-05
9.13155e-08
1.20482e-05
9.67254e-08
1.20527e-05
1.118e-07
1.20551e-05
1.16226e-07
1.20569e-05
1.10564e-07
1.20594e-05
1.04101e-07
1.20638e-05
1.00826e-07
1.00124e-07
1.20687e-05
1.26418e-05
1.15639e-08
1.26458e-05
1.08249e-08
1.2642e-05
-3.79996e-08
1.26315e-05
-1.63197e-09
1.2626e-05
8.98483e-09
1.26331e-05
9.48435e-09
1.2643e-05
8.79792e-08
1.26374e-05
1.22628e-07
1.2627e-05
7.2587e-08
1.26269e-05
5.73426e-08
1.26298e-05
8.89024e-08
1.2627e-05
1.04102e-07
1.26231e-05
9.52254e-08
1.26247e-05
9.51235e-08
1.26294e-05
1.07111e-07
1.26327e-05
1.12928e-07
1.26348e-05
1.08443e-07
1.26372e-05
1.01719e-07
1.26409e-05
9.7146e-08
9.50726e-08
1.2646e-05
1.32468e-05
1.16928e-08
1.32487e-05
8.9269e-09
1.32465e-05
-3.58135e-08
1.32378e-05
7.12684e-09
1.32301e-05
1.6603e-08
1.32348e-05
4.86714e-09
1.32465e-05
7.61938e-08
1.32439e-05
1.25256e-07
1.32324e-05
8.40713e-08
1.32299e-05
5.98294e-08
1.32337e-05
8.51099e-08
1.32329e-05
1.04929e-07
1.32291e-05
9.89982e-08
1.32294e-05
9.48213e-08
1.32338e-05
1.02784e-07
1.32378e-05
1.08941e-07
1.32403e-05
1.05862e-07
1.32429e-05
9.91797e-08
1.3246e-05
9.39843e-08
9.04005e-08
1.32507e-05
1.38807e-05
1.11901e-08
1.38807e-05
8.8757e-09
1.38794e-05
-3.45049e-08
1.3873e-05
1.35634e-08
1.3864e-05
2.55552e-08
1.38653e-05
3.56475e-09
1.3878e-05
6.3469e-08
1.38791e-05
1.24206e-07
1.38676e-05
9.55833e-08
1.38627e-05
6.4713e-08
1.38663e-05
8.1501e-08
1.38674e-05
1.03821e-07
1.38645e-05
1.01946e-07
1.38638e-05
9.55111e-08
1.38673e-05
9.92593e-08
1.38717e-05
1.04566e-07
1.38748e-05
1.02781e-07
1.38776e-05
9.63893e-08
1.38806e-05
9.09286e-08
8.63788e-08
1.38846e-05
1.45447e-05
1.01323e-08
1.45433e-05
1.02681e-08
1.45421e-05
-3.32928e-08
1.45382e-05
1.74534e-08
1.4529e-05
3.48321e-08
1.45266e-05
5.892e-09
1.45391e-05
5.10349e-08
1.45438e-05
1.19475e-07
1.45336e-05
1.05768e-07
1.45267e-05
7.16027e-08
1.45292e-05
7.90343e-08
1.45319e-05
1.01076e-07
1.45303e-05
1.03573e-07
1.45291e-05
9.67073e-08
1.45317e-05
9.66958e-08
1.4536e-05
1.00211e-07
1.45396e-05
9.92218e-08
1.45426e-05
9.34132e-08
1.45458e-05
8.77122e-08
8.28388e-08
1.45493e-05
1.52403e-05
8.66935e-09
1.5238e-05
1.25951e-08
1.52362e-05
-3.14787e-08
1.52348e-05
1.8882e-08
1.52261e-05
4.348e-08
1.52205e-05
1.14948e-08
1.52311e-05
4.04194e-08
1.52391e-05
1.11494e-07
1.52316e-05
1.13254e-07
1.52233e-05
7.99239e-08
1.52242e-05
7.81909e-08
1.52279e-05
9.73742e-08
1.52279e-05
1.03581e-07
1.52267e-05
9.78317e-08
1.52284e-05
9.49948e-08
1.52324e-05
9.62246e-08
1.52363e-05
9.53338e-08
1.52395e-05
9.02502e-08
1.52428e-05
8.44078e-08
7.94175e-08
1.52462e-05
1.5969e-05
6.9895e-09
1.59663e-05
1.53255e-08
1.59634e-05
-2.85766e-08
1.59639e-05
1.83506e-08
1.59568e-05
5.06016e-08
1.59488e-05
1.95138e-08
1.59562e-05
3.30249e-08
1.59665e-05
1.01113e-07
1.59626e-05
1.17188e-07
1.59539e-05
8.86554e-08
1.5953e-05
7.91018e-08
1.59568e-05
9.3497e-08
1.59584e-05
1.02015e-07
1.5958e-05
9.82792e-08
1.59591e-05
9.3863e-08
1.59626e-05
9.27405e-08
1.59666e-05
9.13548e-08
1.59699e-05
8.68687e-08
1.59732e-05
8.11211e-08
7.59814e-08
1.59767e-05
1.67323e-05
5.29193e-09
1.67296e-05
1.79966e-08
1.67255e-05
-2.44315e-08
1.67271e-05
1.67264e-08
1.67222e-05
5.54596e-08
1.67128e-05
2.89511e-08
1.67163e-05
2.95316e-08
1.67279e-05
8.95604e-08
1.67276e-05
1.17438e-07
1.67199e-05
9.64116e-08
1.67173e-05
8.16933e-08
1.67207e-05
9.00459e-08
1.67235e-05
9.92316e-08
1.67241e-05
9.77016e-08
1.67251e-05
9.28322e-08
1.67281e-05
8.97708e-08
1.6732e-05
8.74643e-08
1.67355e-05
8.32833e-08
1.67388e-05
7.78863e-08
7.26117e-08
1.67422e-05
1.75319e-05
3.74636e-09
1.75297e-05
2.02305e-08
1.75243e-05
-1.90793e-08
1.75262e-05
1.48025e-08
1.75237e-05
5.79655e-08
1.75142e-05
3.85288e-08
1.75139e-05
2.97724e-08
1.7525e-05
7.8509e-08
1.75281e-05
1.14322e-07
1.75223e-05
1.02158e-07
1.75187e-05
8.53194e-08
1.75212e-05
8.75603e-08
1.75248e-05
9.56722e-08
1.75264e-05
9.60492e-08
1.75277e-05
9.15013e-08
1.75304e-05
8.7155e-08
1.7534e-05
8.37991e-08
1.75377e-05
7.96107e-08
1.7541e-05
7.46194e-08
6.94778e-08
1.75441e-05
1.83696e-05
2.49223e-09
1.8368e-05
2.17939e-08
1.83617e-05
-1.27581e-08
1.83633e-05
1.32531e-08
1.83628e-05
5.84246e-08
1.83542e-05
4.71421e-08
1.83509e-05
3.30505e-08
1.83599e-05
6.9495e-08
1.8366e-05
1.08274e-07
1.83626e-05
1.05492e-07
1.83589e-05
8.9015e-08
1.83603e-05
8.62055e-08
1.8364e-05
9.19787e-08
1.83666e-05
9.34639e-08
1.83683e-05
8.97731e-08
1.83708e-05
8.46339e-08
1.83742e-05
8.04343e-08
1.83778e-05
7.60125e-08
1.83812e-05
7.11856e-08
6.64977e-08
1.83842e-05
1.92473e-05
1.60444e-09
1.92464e-05
2.26776e-08
1.92396e-05
-5.9564e-09
1.92402e-05
1.26304e-08
1.92413e-05
5.73446e-08
1.92344e-05
5.4084e-08
1.92292e-05
3.82143e-08
1.92354e-05
6.32723e-08
1.9243e-05
1.00654e-07
1.92425e-05
1.0604e-07