/*--------------------------------*- C++ -*----------------------------------*\
| =========                 |                                                 |
| \\      /  F ield         | OpenFOAM: The Open Source CFD Toolbox           |
|  \\    /   O peration     | Version:  2106                                  |
|   \\  /    A nd           | Website:  www.openfoam.com                      |
|    \\/     M anipulation  |                                                 |
\*---------------------------------------------------------------------------*/
FoamFile
{
    version     2.0;
    format      ascii;
    arch        "LSB;label=32;scalar=64";
    class       volVectorField;
    location    "0.695";
    object      U;
}
// * * * * * * * * * * * * * * * * * * * * * * * * * * * * * * * * * * * * * //

dimensions      [0 1 -1 0 0 0 0];

internalField   nonuniform List<vector> 
9600
(
(0.868001 -0.00810382 0)
(1.13156 0.00672881 0)
(0.845654 -0.00135783 0)
(1.14808 -0.002639 0)
(0.889386 -0.00234697 0)
(1.19888 0.00482354 0)
(0.887412 0.00345669 0)
(1.16023 0.00929781 0)
(0.896471 -0.00322258 0)
(1.13475 -0.000998044 0)
(0.893398 -0.0120763 0)
(1.14826 -0.00254682 0)
(0.896298 -0.00551716 0)
(1.15981 -0.000739869 0)
(0.90523 -0.00320615 0)
(1.17247 -0.00141641 0)
(0.905328 0.000221001 0)
(1.16984 0.00119373 0)
(0.894886 0.00432006 0)
(1.15847 0.0043158 0)
(0.87841 -0.00817843 0)
(1.12548 0.00697415 0)
(0.864648 -0.00162276 0)
(1.13772 -0.00281452 0)
(0.90561 -0.00313403 0)
(1.18621 0.00494168 0)
(0.9107 0.00365575 0)
(1.14229 0.00937133 0)
(0.929683 -0.00304779 0)
(1.11114 -0.000749171 0)
(0.930327 -0.0124526 0)
(1.11846 -0.0024393 0)
(0.940826 -0.0058846 0)
(1.12083 -0.000746453 0)
(0.961469 -0.00361522 0)
(1.11801 -0.00132999 0)
(0.979702 0.000453376 0)
(1.09109 0.0010208 0)
(0.998682 0.00587889 0)
(1.04187 0.00342873 0)
(0.895327 -0.00826056 0)
(1.11198 0.00718113 0)
(0.895595 -0.00185773 0)
(1.11614 -0.00302272 0)
(0.934136 -0.00372552 0)
(1.16007 0.00510269 0)
(0.950385 0.0039917 0)
(1.11364 0.00935491 0)
(0.970537 -0.00274254 0)
(1.07727 -0.0006711 0)
(0.969591 -0.01256 0)
(1.07538 -0.00259413 0)
(0.986955 -0.00595863 0)
(1.07417 -0.00115284 0)
(1.01024 -0.00352841 0)
(1.06893 -0.00179206 0)
(1.02672 0.00101542 0)
(1.05037 0.00079219 0)
(1.03182 0.00661804 0)
(1.02827 0.00445334 0)
(0.916093 -0.0083417 0)
(1.09226 0.00720742 0)
(0.929771 -0.00196173 0)
(1.08631 -0.00323134 0)
(0.965036 -0.00419438 0)
(1.12599 0.00504566 0)
(0.990533 0.00437293 0)
(1.0854 0.00925528 0)
(1.00156 -0.00231532 0)
(1.04731 -0.000625226 0)
(0.993247 -0.0124323 0)
(1.0396 -0.00294565 0)
(1.01022 -0.00593858 0)
(1.04319 -0.00163866 0)
(1.02812 -0.00341715 0)
(1.04435 -0.00217 0)
(1.03716 0.001376 0)
(1.03924 0.000766305 0)
(1.03381 0.00703996 0)
(1.0304 0.00551697 0)
(0.937712 -0.00841255 0)
(1.0696 0.00709615 0)
(0.959631 -0.00192937 0)
(1.05524 -0.00345597 0)
(0.988923 -0.00461568 0)
(1.09161 0.0047993 0)
(1.01872 0.00470877 0)
(1.06385 0.0092218 0)
(1.01733 -0.00180811 0)
(1.02773 -0.000496877 0)
(1.0014 -0.0122041 0)
(1.01806 -0.0033241 0)
(1.01479 -0.00598358 0)
(1.02704 -0.00205754 0)
(1.02803 -0.00340339 0)
(1.03238 -0.00243952 0)
(1.03376 0.00151484 0)
(1.03332 0.000789829 0)
(1.03073 0.0073616 0)
(1.02832 0.00629338 0)
(0.957335 -0.00846028 0)
(1.0478 0.00690869 0)
(0.980938 -0.00180169 0)
(1.02977 -0.00366751 0)
(1.00186 -0.00499392 0)
(1.06237 0.00447618 0)
(1.03123 0.0049351 0)
(1.04871 0.00930628 0)
(1.02129 -0.00128718 0)
(1.01703 -0.000297965 0)
(1.00199 -0.0119244 0)
(1.00715 -0.00367075 0)
(1.0118 -0.00606819 0)
(1.0179 -0.00244511 0)
(1.02238 -0.00341242 0)
(1.02384 -0.00268723 0)
(1.02705 0.00152904 0)
(1.02688 0.000836235 0)
(1.02609 0.00750152 0)
(1.02451 0.00695402 0)
(0.973094 -0.00847911 0)
(1.02956 0.00669318 0)
(0.993331 -0.00163351 0)
(1.01316 -0.00382724 0)
(1.00542 -0.00531185 0)
(1.0399 0.00414482 0)
(1.03115 0.00504075 0)
(1.03691 0.00945261 0)
(1.01912 -0.000803939 0)
(1.01146 -8.7693e-05 0)
(1.00096 -0.0116106 0)
(1.00196 -0.00398131 0)
(1.00755 -0.00614194 0)
(1.01146 -0.0028078 0)
(1.01591 -0.00339946 0)
(1.0163 -0.00292741 0)
(1.0196 0.00149142 0)
(1.01989 0.00087869 0)
(1.02012 0.00745816 0)
(1.01959 0.0075644 0)
(0.98444 -0.0084696 0)
(1.01586 0.00648942 0)
(0.999009 -0.00147194 0)
(1.00467 -0.00392029 0)
(1.0037 -0.00554787 0)
(1.02342 0.00384162 0)
(1.02404 0.00505817 0)
(1.0265 0.00958305 0)
(1.01494 -0.000395483 0)
(1.00839 7.71729e-05 0)
(1.0005 -0.0112794 0)
(0.999557 -0.00425416 0)
(1.00405 -0.00616503 0)
(1.00651 -0.00313174 0)
(1.00998 -0.00335769 0)
(1.00967 -0.00313095 0)
(1.01231 0.00142805 0)
(1.0128 0.000929168 0)
(1.01339 0.00730059 0)
(1.01363 0.00812821 0)
(0.991847 -0.00843335 0)
(1.0064 0.0063177 0)
(1.00081 -0.00134762 0)
(1.00149 -0.00395741 0)
(1.0004 -0.00568617 0)
(1.01157 0.00358938 0)
(1.01485 0.00502905 0)
(1.01731 0.00964418 0)
(1.01085 -8.53817e-05 0)
(1.00658 0.000165636 0)
(1.00073 -0.0109416 0)
(0.998519 -0.00448292 0)
(1.00158 -0.00612352 0)
(1.00281 -0.00340958 0)
(1.00509 -0.00327949 0)
(1.00423 -0.00327194 0)
(1.00582 0.00135248 0)
(1.00619 0.0010288 0)
(1.00666 0.00708611 0)
(1.00726 0.00864059 0)
(0.99627 -0.00837214 0)
(1.00028 0.00617623 0)
(1.00093 -0.00127101 0)
(1.00086 -0.0039577 0)
(0.997532 -0.0057243 0)
(1.00334 0.00339596 0)
(1.00666 0.00498142 0)
(1.00999 0.00961489 0)
(1.00771 0.000124727 0)
(1.00549 0.000174627 0)
(1.00127 -0.0106004 0)
(0.998136 -0.00466768 0)
(0.999942 -0.0060237 0)
(1.00023 -0.00363477 0)
(1.0014 -0.00316519 0)
(1.00013 -0.00333987 0)
(1.00054 0.00127821 0)
(1.00061 0.00120585 0)
(1.00069 0.00685212 0)
(1.00133 0.00909085 0)
(0.9987 -0.00828896 0)
(0.996617 0.00605279 0)
(1.00059 -0.00123501 0)
(1.00099 -0.00393705 0)
(0.995653 -0.0056763 0)
(0.998001 0.00325401 0)
(1.00079 0.00492759 0)
(1.00496 0.00949996 0)
(1.00572 0.000253811 0)
(1.00487 0.000118455 0)
(1.00179 -0.0102529 0)
(0.998025 -0.00481751 0)
(0.998874 -0.00587539 0)
(0.998527 -0.00381101 0)
(0.99877 -0.00302351 0)
(0.997251 -0.00332818 0)
(0.996629 0.00121661 0)
(0.996336 0.00145888 0)
(0.996003 0.00662728 0)
(0.996548 0.00946626 0)
(0.999926 -0.00818785 0)
(0.99463 0.00593509 0)
(1.00027 -0.00122405 0)
(1.00109 -0.00390583 0)
(0.994569 -0.00556528 0)
(0.994849 0.00314705 0)
(0.997284 0.00487048 0)
(1.00205 0.00931754 0)
(1.00471 0.000329667 0)
(1.00458 1.86808e-05 0)
(1.00217 -0.00989642 0)
(0.997995 -0.00493973 0)
(0.99815 -0.00569246 0)
(0.997413 -0.00394451 0)
(0.996988 -0.00286899 0)
(0.995352 -0.00323895 0)
(0.993984 0.0011689 0)
(0.993387 0.00176904 0)
(0.992789 0.00643549 0)
(0.993202 0.00975569 0)
(1.00049 -0.00807294 0)
(0.993715 0.00581443 0)
(1.00007 -0.00122232 0)
(1.00099 -0.0038697 0)
(0.99394 -0.00541351 0)
(0.993202 0.00305616 0)
(0.995587 0.00480931 0)
(1.00073 0.0090869 0)
(1.00438 0.000378051 0)
(1.0045 -0.000104656 0)
(1.00239 -0.00952851 0)
(0.997973 -0.00503849 0)
(0.997626 -0.00548937 0)
(0.996668 -0.00403755 0)
(0.995809 -0.00271972 0)
(0.994161 -0.00308994 0)
(0.992373 0.0011268 0)
(0.991581 0.00210853 0)
(0.990901 0.00629356 0)
(0.991233 0.00995003 0)
(1.00073 -0.00794766 0)
(0.993418 0.00568581 0)
(0.999958 -0.00121791 0)
(1.00075 -0.00383139 0)
(0.993533 -0.00523743 0)
(0.992467 0.0029653 0)
(0.995006 0.00474271 0)
(1.00038 0.00882263 0)
(1.00444 0.000416542 0)
(1.00452 -0.000237459 0)
(1.00251 -0.00914688 0)
(0.997953 -0.00511592 0)
(0.997233 -0.00527733 0)
(0.996151 -0.00409388 0)
(0.995034 -0.0025871 0)
(0.993448 -0.0028939 0)
(0.991507 0.00109122 0)
(0.990636 0.00244685 0)
(0.990024 0.00620785 0)
(0.990345 0.0100479 0)
(1.00081 -0.00781423 0)
(0.993428 0.00554684 0)
(0.99988 -0.00120378 0)
(1.00048 -0.00379248 0)
(0.993248 -0.00504681 0)
(0.992223 0.00286421 0)
(0.994991 0.00466968 0)
(1.00047 0.00853503 0)
(1.00463 0.000455303 0)
(1.00457 -0.000370436 0)
(1.00257 -0.00875424 0)
(0.997949 -0.00516972 0)
(0.996944 -0.00506554 0)
(0.995789 -0.00411568 0)
(0.994529 -0.00246915 0)
(0.993043 -0.00266705 0)
(0.991124 0.00106577 0)
(0.990263 0.00275538 0)
(0.989809 0.00617163 0)
(0.990173 0.0100591 0)
(1.00084 -0.00767371 0)
(0.993561 0.00539632 0)
(0.99981 -0.00117668 0)
(1.00024 -0.0037545 0)
(0.993059 -0.00484613 0)
(0.992216 0.00274799 0)
(0.995196 0.0045909 0)
(1.0007 0.0082295 0)
(1.00481 0.000499624 0)
(1.00459 -0.000499114 0)
(1.00258 -0.00835445 0)
(0.997974 -0.00520037 0)
(0.996746 -0.00485773 0)
(0.995551 -0.00410685 0)
(0.994209 -0.00236387 0)
(0.992833 -0.00242399 0)
(0.991026 0.00105504 0)
(0.990223 0.00302334 0)
(0.989962 0.0061715 0)
(0.990399 0.010001 0)
(1.00084 -0.00752631 0)
(0.993725 0.00523363 0)
(0.999734 -0.00113584 0)
(1.00007 -0.00371901 0)
(0.992963 -0.00463677 0)
(0.992313 0.00261576 0)
(0.995446 0.00450823 0)
(1.00089 0.00790908 0)
(1.00491 0.000548783 0)
(1.00455 -0.000621062 0)
(1.00256 -0.00795296 0)
(0.998028 -0.00520522 0)
(0.99663 -0.00466068 0)
(0.995415 -0.0040658 0)
(0.994025 -0.00227845 0)
(0.992751 -0.00217374 0)
(0.991089 0.00106558 0)
(0.990357 0.00325588 0)
(0.990283 0.00619229 0)
(0.9908 0.00989091 0)
(1.00084 -0.00737182 0)
(0.993882 0.00505835 0)
(0.999649 -0.00108147 0)
(0.99995 -0.00368792 0)
(0.992952 -0.00441848 0)
(0.992457 0.00246914 0)
(0.995672 0.00442287 0)
(1.001 0.00757856 0)
(1.00491 0.000595853 0)
(1.00446 -0.000732265 0)
(1.0025 -0.00755718 0)
(0.998106 -0.00518279 0)
(0.996578 -0.00447489 0)
(0.995363 -0.00399824 0)
(0.993944 -0.00220252 0)
(0.992758 -0.00192604 0)
(0.991244 0.00109909 0)
(0.990573 0.00345704 0)
(0.990662 0.00621754 0)
(0.991253 0.00974102 0)
(1.00083 -0.00720988 0)
(0.994023 0.00487016 0)
(0.999557 -0.00101405 0)
(0.99988 -0.00366239 0)
(0.993008 -0.00419191 0)
(0.992625 0.00231091 0)
(0.995863 0.00433493 0)
(1.00103 0.00724182 0)
(1.00483 0.000644128 0)
(1.00431 -0.000829021 0)
(1.00243 -0.00717412 0)
(0.998199 -0.00513633 0)
(0.996575 -0.00429539 0)
(0.995374 -0.00391539 0)
(0.993941 -0.00211941 0)
(0.99283 -0.00168861 0)
(0.991457 0.00114799 0)
(0.990831 0.00363079 0)
(0.991049 0.00623607 0)
(0.991703 0.00955851 0)
(1.00083 -0.00704021 0)
(0.994151 0.00466915 0)
(0.99946 -0.000934507 0)
(0.999839 -0.00364267 0)
(0.993112 -0.00395699 0)
(0.992807 0.00214385 0)
(0.996025 0.00424605 0)
(1.001 0.0069007 0)
(1.00469 0.000689361 0)
(1.00413 -0.000910235 0)
(1.00233 -0.00680604 0)
(0.9983 -0.00506894 0)
(0.996603 -0.0041246 0)
(0.995429 -0.0038175 0)
(0.993996 -0.00202908 0)
(0.992949 -0.00146245 0)
(0.991711 0.00120291 0)
(0.991115 0.00378469 0)
(0.99143 0.00624888 0)
(0.992139 0.00935009 0)
(1.00082 -0.00686244 0)
(0.994272 0.00445484 0)
(0.999358 -0.000842659 0)
(0.999816 -0.00362983 0)
(0.993247 -0.00371423 0)
(0.993 0.00197062 0)
(0.996171 0.0041542 0)
(1.00094 0.00655898 0)
(1.00451 0.000718809 0)
(1.00392 -0.000974642 0)
(1.00222 -0.00645323 0)
(0.998403 -0.00498311 0)
(0.99665 -0.00396095 0)
(0.995511 -0.00370861 0)
(0.994093 -0.00192592 0)
(0.993102 -0.00123479 0)
(0.991996 0.00125903 0)
(0.99142 0.00392595 0)
(0.991802 0.00626658 0)
(0.992561 0.00912799 0)
(1.00082 -0.00667654 0)
(0.99439 0.00422779 0)
(0.999254 -0.000739697 0)
(0.999803 -0.00362341 0)
(0.9934 -0.00346519 0)
(0.9932 0.00179285 0)
(0.99631 0.00405643 0)
(1.00085 0.00622238 0)
(1.00431 0.000736923 0)
(1.0037 -0.00101828 0)
(1.00211 -0.00611954 0)
(0.998507 -0.00488122 0)
(0.996708 -0.0037933 0)
(0.99561 -0.00359572 0)
(0.99422 -0.0018175 0)
(0.993276 -0.00099944 0)
(0.992303 0.00130839 0)
(0.991746 0.00404718 0)
(0.992166 0.00629485 0)
(0.99297 0.00890496 0)
(1.00081 -0.00648248 0)
(0.994509 0.00398847 0)
(0.999148 -0.000626217 0)
(0.999796 -0.00362332 0)
(0.993564 -0.00321174 0)
(0.993405 0.00161461 0)
(0.996447 0.00395195 0)
(1.00076 0.00589468 0)
(1.00411 0.000740155 0)
(1.00347 -0.00104304 0)
(1.00198 -0.00579958 0)
(0.998611 -0.00477148 0)
(0.996774 -0.00361878 0)
(0.995717 -0.00348282 0)
(0.994368 -0.00171232 0)
(0.993464 -0.000764254 0)
(0.992625 0.00135589 0)
(0.992091 0.00413435 0)
(0.992524 0.00633263 0)
(0.993367 0.00868972 0)
(1.0008 -0.00628022 0)
(0.994632 0.00373685 0)
(0.999041 -0.0005024 0)
(0.999795 -0.00362849 0)
(0.993734 -0.00295689 0)
(0.993613 0.00144006 0)
(0.996585 0.00383696 0)
(1.00066 0.00557955 0)
(1.0039 0.000723361 0)
(1.00324 -0.00105392 0)
(1.00186 -0.00548506 0)
(0.998714 -0.00466264 0)
(0.996844 -0.00343638 0)
(0.995828 -0.00336542 0)
(0.994535 -0.00160787 0)
(0.993661 -0.000523892 0)
(0.992955 0.00141872 0)
(0.992454 0.00418062 0)
(0.992878 0.00637361 0)
(0.993748 0.00849086 0)
(1.0008 -0.00606993 0)
(0.99476 0.0034738 0)
(0.998933 -0.000370293 0)
(0.999797 -0.00363648 0)
(0.993909 -0.00270293 0)
(0.993823 0.00127121 0)
(0.996725 0.0037082 0)
(1.00057 0.00527993 0)
(1.00369 0.000689813 0)
(1.00302 -0.00105239 0)
(1.00173 -0.00517577 0)
(0.998817 -0.00455631 0)
(0.996918 -0.00324322 0)
(0.995941 -0.00323495 0)
(0.994717 -0.00150617 0)
(0.993866 -0.000273387 0)
(0.993286 0.00150384 0)
(0.992833 0.00418466 0)
(0.993231 0.00640281 0)
(0.994112 0.00831736 0)
(1.00079 -0.00585175 0)
(0.994894 0.00320023 0)
(0.998824 -0.000230986 0)
(0.999803 -0.00364623 0)
(0.994088 -0.00245289 0)
(0.994032 0.00111132 0)
(0.996866 0.00356112 0)
(1.00047 0.00499863 0)
(1.00347 0.000642334 0)
(1.0028 -0.00104222 0)
(1.00159 -0.0048679 0)
(0.99892 -0.00445299 0)
(0.996998 -0.00304338 0)
(0.996053 -0.00308317 0)
(0.994915 -0.00141106 0)
(0.99408 -1.96193e-05 0)
(0.993613 0.00161137 0)
(0.993225 0.00414895 0)
(0.993588 0.00639976 0)
(0.994455 0.00817273 0)
(1.00078 -0.00562641 0)
(0.995034 0.00291781 0)
(0.998716 -8.65107e-05 0)
(0.999811 -0.00365516 0)
(0.994271 -0.00221016 0)
(0.99424 0.000964632 0)
(0.997011 0.00339423 0)
(1.00037 0.00473754 0)
(1.00326 0.000581481 0)
(1.00258 -0.00102911 0)
(1.00146 -0.00455482 0)
(0.999023 -0.00435371 0)
(0.997085 -0.00284584 0)
(0.996163 -0.00290208 0)
(0.995129 -0.00133002 0)
(0.994305 0.000230488 0)
(0.993931 0.00174668 0)
(0.993624 0.00408683 0)
(0.993954 0.00634827 0)
(0.994782 0.00805018 0)
(1.00077 -0.00539383 0)
(0.995182 0.00262707 0)
(0.998608 6.06157e-05 0)
(0.999821 -0.00366045 0)
(0.994459 -0.00197831 0)
(0.994447 0.000837243 0)
(0.997159 0.00320583 0)
(1.00027 0.0044958 0)
(1.00305 0.000509046 0)
(1.00238 -0.00101956 0)
(1.00132 -0.00423573 0)
(0.999124 -0.00425555 0)
(0.997181 -0.00266001 0)
(0.996271 -0.00268503 0)
(0.995355 -0.00126024 0)
(0.994545 0.000457602 0)
(0.994239 0.00190798 0)
(0.994022 0.00401973 0)
(0.994332 0.00624174 0)
(0.995098 0.00793192 0)
(1.00076 -0.00515482 0)
(0.995337 0.00233022 0)
(0.998502 0.000208389 0)
(0.999832 -0.00366039 0)
(0.99465 -0.0017588 0)
(0.99465 0.000729591 0)
(0.99731 0.00299566 0)
(1.00018 0.00427157 0)
(1.00284 0.00043317 0)
(1.00218 -0.00101573 0)
(1.00117 -0.00391454 0)
(0.999221 -0.00415016 0)
(0.99729 -0.00248839 0)
(0.996376 -0.00243533 0)
(0.99559 -0.00118318 0)
(0.994804 0.000649847 0)
(0.994537 0.00208961 0)
(0.994411 0.00396862 0)
(0.994722 0.0060851 0)
(0.995413 0.00779199 0)
(1.00075 -0.00490994 0)
(0.9955 0.00202899 0)
(0.998399 0.000355232 0)
(0.999844 -0.00365283 0)
(0.994845 -0.00155726 0)
(0.994849 0.0006436 0)
(0.997465 0.002765 0)
(1.00009 0.00406354 0)
(1.00262 0.000356798 0)
(1.00199 -0.00102021 0)
(1.00103 -0.00358889 0)
(0.999313 -0.00403513 0)
(0.997412 -0.00233287 0)
(0.996479 -0.00215609 0)
(0.99583 -0.00109208 0)
(0.995082 0.000797124 0)
(0.99483 0.00227796 0)
(0.994785 0.00394975 0)
(0.995119 0.0058994 0)
(0.995735 0.00761069 0)
(1.00073 -0.00466001 0)
(0.995669 0.00172564 0)
(0.9983 0.000497307 0)
(0.999857 -0.00363439 0)
(0.995044 -0.00137789 0)
(0.995042 0.000582235 0)
(0.997623 0.0025158 0)
(0.999995 0.00386904 0)
(1.00241 0.000283394 0)
(1.00181 -0.00103421 0)
(1.00088 -0.00325901 0)
(0.999398 -0.00390488 0)
(0.99755 -0.00219544 0)
(0.996582 -0.00185255 0)
(0.996067 -0.000982325 0)
(0.99538 0.000893625 0)
(0.995124 0.00244689 0)
(0.995138 0.00396429 0)
(0.995513 0.00571177 0)
(0.996071 0.00738313 0)
(1.00072 -0.00440598 0)
(0.995845 0.00142277 0)
(0.998204 0.000631775 0)
(0.999871 -0.00360329 0)
(0.995248 -0.00121844 0)
(0.995227 0.000543762 0)
(0.997783 0.00225062 0)
(0.999908 0.00368259 0)
(1.00219 0.000225014 0)
(1.00164 -0.00106116 0)
(1.00073 -0.00292806 0)
(0.999474 -0.0037497 0)
(0.997704 -0.00208186 0)
(0.996686 -0.00153805 0)
(0.996295 -0.000838936 0)
(0.995693 0.000946406 0)
(0.995427 0.00257618 0)
(0.995472 0.00400065 0)
(0.995895 0.00554533 0)
(0.996419 0.0071195 0)
(1.0007 -0.00414829 0)
(0.996028 0.00112117 0)
(0.998113 0.000759823 0)
(0.999885 -0.00355947 0)
(0.995456 -0.00108084 0)
(0.995402 0.000530253 0)
(0.997944 0.00197369 0)
(0.999829 0.0034979 0)
(1.00197 0.000180077 0)
(1.00148 -0.00110865 0)
(1.00059 -0.0025962 0)
(0.999537 -0.00356214 0)
(0.997875 -0.00199451 0)
(0.996798 -0.00122613 0)
(0.996508 -0.000662583 0)
(0.996016 0.000971313 0)
(0.995743 0.00265939 0)
(0.995792 0.00404196 0)
(0.996256 0.00541294 0)
(0.996772 0.00684128 0)
(1.00068 -0.00388849 0)
(0.996216 0.000824924 0)
(0.998028 0.000876674 0)
(0.999899 -0.00350082 0)
(0.99567 -0.000971286 0)
(0.995567 0.000543142 0)
(0.998104 0.00169158 0)
(0.999757 0.00331113 0)
(1.00174 0.000157231 0)
(1.00133 -0.00117456 0)
(1.00045 -0.002274 0)
(0.999583 -0.00332469 0)
(0.99806 -0.00193415 0)
(0.996921 -0.000940529 0)
(0.996704 -0.000452019 0)
(0.99634 0.000989644 0)
(0.996075 0.00269337 0)
(0.996106 0.00406768 0)
(0.996593 0.00531226 0)
(0.997119 0.00657627 0)
(1.00066 -0.00362719 0)
(0.99641 0.000533811 0)
(0.997947 0.000982876 0)
(0.999911 -0.00342945 0)
(0.99589 -0.000888067 0)
(0.995722 0.000577662 0)
(0.998261 0.00140899 0)
(0.999695 0.00311728 0)
(1.00151 0.000167279 0)
(1.0012 -0.00125645 0)
(1.00033 -0.00197661 0)
(0.999611 -0.00303469 0)
(0.998253 -0.00188547 0)
(0.997062 -0.000695214 0)
(0.996884 -0.000206635 0)
(0.996656 0.00102523 0)
(0.99642 0.00268398 0)
(0.996421 0.00406415 0)
(0.996911 0.00522465 0)
(0.997449 0.00634129 0)
(1.00064 -0.00336569 0)
(0.99661 0.000250003 0)
(0.997874 0.00107731 0)
(0.999919 -0.00334342 0)
(0.996118 -0.000829526 0)
(0.995866 0.000632617 0)
(0.998413 0.00112933 0)
(0.999645 0.00291111 0)
(1.00127 0.00021058 0)
(1.00108 -0.00134939 0)
(1.00022 -0.00171281 0)
(0.99962 -0.00269942 0)
(0.998447 -0.00183067 0)
(0.997226 -0.000498652 0)
(0.997053 6.18619e-05 0)
(0.996955 0.00108992 0)
(0.99677 0.00264829 0)
(0.996741 0.00403156 0)
(0.997214 0.00513329 0)
(0.997759 0.00613349 0)
(1.00062 -0.00310477 0)
(0.996814 -2.59663e-05 0)
(0.997808 0.00115751 0)
(0.999923 -0.00324483 0)
(0.996351 -0.000800147 0)
(0.995999 0.000708281 0)
(0.998557 0.000862634 0)
(0.99961 0.00268613 0)
(1.00103 0.000294751 0)
(1.00096 -0.00143414 0)
(1.00014 -0.00150334 0)
(0.999611 -0.00232506 0)
(0.998634 -0.00174855 0)
(0.997416 -0.000361183 0)
(0.997217 0.000325546 0)
(0.997231 0.00118537 0)
(0.997121 0.00260209 0)
(0.997067 0.00397344 0)
(0.997507 0.00503407 0)
(0.998049 0.00594349 0)
(1.00059 -0.00284556 0)
(0.997023 -0.000293871 0)
(0.997751 0.00122829 0)
(0.999922 -0.003138 0)
(0.996592 -0.000794361 0)
(0.996122 0.000802898 0)
(0.99869 0.000620423 0)
(0.999593 0.00243352 0)
(1.00078 0.000415293 0)
(1.00085 -0.00149194 0)
(1.00009 -0.00136244 0)
(0.999594 -0.00193478 0)
(0.998803 -0.00161973 0)
(0.997626 -0.000275521 0)
(0.997387 0.000554747 0)
(0.997484 0.00131066 0)
(0.997465 0.00255812 0)
(0.997398 0.00389085 0)
(0.997795 0.00492382 0)
(0.998321 0.00576288 0)
(1.00057 -0.0025894 0)
(0.997235 -0.000548327 0)
(0.997704 0.00128582 0)
(0.999915 -0.00301228 0)
(0.996842 -0.000817735 0)
(0.996236 0.000912533 0)
(0.998808 0.000409221 0)
(0.999598 0.00215231 0)
(1.00053 0.0005615 0)
(1.00072 -0.00150117 0)
(1.00006 -0.00128618 0)
(0.999575 -0.00156003 0)
(0.998949 -0.00144125 0)
(0.997852 -0.000221895 0)
(0.997569 0.000735273 0)
(0.997716 0.00145285 0)
(0.997792 0.00252684 0)
(0.997732 0.00378661 0)
(0.998081 0.00479986 0)
(0.998577 0.00558803 0)
(1.00054 -0.00233856 0)
(0.997451 -0.000786615 0)
(0.997668 0.00132782 0)
(0.9999 -0.00286577 0)
(0.9971 -0.000874116 0)
(0.996343 0.00102621 0)
(0.998907 0.000238903 0)
(0.999625 0.00183998 0)
(1.00029 0.000717799 0)
(1.00059 -0.00144072 0)
(1.00007 -0.00126331 0)
(0.999566 -0.00123003 0)
(0.999068 -0.0012068 0)
(0.998081 -0.000174697 0)
(0.99777 0.000858264 0)
(0.997934 0.00159253 0)
(0.998097 0.0025196 0)
(0.998063 0.00366855 0)
(0.998367 0.00465752 0)
(0.998824 0.00540983 0)
(1.00051 -0.00209336 0)
(0.997669 -0.00100719 0)
(0.997645 0.00134944 0)
(0.999875 -0.0026946 0)
(0.997365 -0.000965424 0)
(0.996448 0.00113527 0)
(0.998982 0.000122867 0)
(0.999675 0.00149727 0)
(1.00007 0.000867916 0)
(1.00043 -0.00129978 0)
(1.00009 -0.00127566 0)
(0.999579 -0.000964727 0)
(0.999164 -0.000937115 0)
(0.998302 -0.000113829 0)
(0.997987 0.000929395 0)
(0.998148 0.0017066 0)
(0.998377 0.00253803 0)
(0.998383 0.00355505 0)
(0.998655 0.00449842 0)
(0.999066 0.00522145 0)
(1.00048 -0.00185762 0)
(0.997888 -0.00120281 0)
(0.997638 0.00134415 0)
(0.99984 -0.00249424 0)
(0.997638 -0.00108919 0)
(0.996555 0.00123187 0)
(0.99903 7.15524e-05 0)
(0.999744 0.00114072 0)
(0.999875 0.000987941 0)
(1.00025 -0.00107935 0)
(1.00012 -0.00128998 0)
(0.99962 -0.000773709 0)
(0.999245 -0.000659991 0)
(0.998505 -1.8488e-05 0)
(0.998216 0.000977026 0)
(0.998366 0.00178485 0)
(0.998638 0.00256525 0)
(0.998683 0.00346302 0)
(0.998937 0.00433192 0)
(0.999306 0.00502074 0)
(1.00045 -0.00163249 0)
(0.998107 -0.00137232 0)
(0.997647 0.00130897 0)
(0.999792 -0.00225904 0)
(0.997915 -0.00123206 0)
(0.996671 0.00129578 0)
(0.999047 8.94702e-05 0)
(0.999829 0.000789156 0)
(0.999719 0.00105382 0)
(1.00005 -0.000805797 0)
(1.00014 -0.00127078 0)
(0.999692 -0.000656682 0)
(0.999324 -0.000397959 0)
(0.998688 0.000118857 0)
(0.998447 0.00102145 0)
(0.998589 0.00183276 0)
(0.998886 0.00258059 0)
(0.998962 0.00339315 0)
(0.999206 0.00417454 0)
(0.999541 0.00481302 0)
(1.00041 -0.00141932 0)
(0.998323 -0.00151263 0)
(0.997676 0.00124081 0)
(0.999733 -0.00198775 0)
(0.998192 -0.00138539 0)
(0.996802 0.00130837 0)
(0.999036 0.00017618 0)
(0.999918 0.000465002 0)
(0.999607 0.00104895 0)
(0.99984 -0.000506514 0)
(1.00015 -0.00119699 0)
(0.999789 -0.000597562 0)
(0.999414 -0.000167578 0)
(0.998852 0.000282584 0)
(0.99867 0.00106535 0)
(0.998814 0.00185798 0)
(0.999127 0.00257845 0)
(0.999225 0.00332991 0)
(0.999457 0.00403928 0)
(0.99976 0.00461954 0)
(1.00038 -0.00122147 0)
(0.998534 -0.00161778 0)
(0.997727 0.00113554 0)
(0.999661 -0.00168816 0)
(0.998462 -0.00153064 0)
(0.996957 0.00125777 0)
(0.998999 0.000316127 0)
(1 0.000198808 0)
(0.999546 0.000969391 0)
(0.999632 -0.000205621 0)
(1.00012 -0.00105622 0)
(0.999904 -0.000568014 0)
(0.999522 8.04912e-06 0)
(0.999 0.000453539 0)
(0.998881 0.00111556 0)
(0.999041 0.00186426 0)
(0.999364 0.00256461 0)
(0.999476 0.00326263 0)
(0.999694 0.00391235 0)
(0.999957 0.00445184 0)
(1.00035 -0.00103996 0)
(0.998737 -0.00168616 0)
(0.997801 0.000992813 0)
(0.999581 -0.00137119 0)
(0.998717 -0.00164633 0)
(0.997139 0.0011303 0)
(0.998946 0.000491728 0)
(1.00007 6.50522e-06 0)
(0.999531 0.000830828 0)
(0.999442 6.37743e-05 0)
(1.00007 -0.000856909 0)
(1.00002 -0.00053809 0)
(0.999654 0.000121276 0)
(0.999141 0.000614014 0)
(0.999074 0.00117834 0)
(0.999264 0.00185204 0)
(0.999598 0.00253122 0)
(0.999716 0.0031954 0)
(0.999923 0.00378153 0)
(1.00014 0.00429438 0)
(1.00032 -0.000876927 0)
(0.998929 -0.00171728 0)
(0.997899 0.000824187 0)
(0.999496 -0.00106271 0)
(0.99895 -0.00171011 0)
(0.997351 0.000937335 0)
(0.998889 0.000667313 0)
(1.00011 -8.50915e-05 0)
(0.999559 0.000660968 0)
(0.999284 0.000284777 0)
(0.999989 -0.000621695 0)
(1.00013 -0.000489714 0)
(0.999809 0.000190751 0)
(0.999287 0.000754608 0)
(0.999249 0.00125772 0)
(0.999478 0.00183607 0)
(0.999835 0.00246999 0)
(0.999948 0.00312225 0)
(1.00014 0.00365857 0)
(1.00032 0.00412231 0)
(1.00029 -0.00073227 0)
(0.999108 -0.00171381 0)
(0.998019 0.000637711 0)
(0.999411 -0.000774701 0)
(0.999153 -0.00170615 0)
(0.997589 0.000702627 0)
(0.998843 0.000807548 0)
(1.00012 -7.91465e-05 0)
(0.999614 0.000492786 0)
(0.999166 0.000443541 0)
(0.99989 -0.000374579 0)
(1.00022 -0.000409701 0)
(0.999983 0.000236842 0)
(0.999444 0.000867523 0)
(0.999409 0.00134502 0)
(0.999673 0.00183271 0)
(1.00007 0.00239478 0)
(1.00018 0.0030283 0)
(1.00034 0.00355597 0)
(1.00049 0.00394733 0)
(1.00026 -0.000608196 0)
(0.999271 -0.00167175 0)
(0.998158 0.000437077 0)
(0.999334 -0.000519518 0)
(0.999323 -0.00162815 0)
(0.997845 0.000448461 0)
(0.998819 0.000886313 0)
(1.0001 -1.49375e-05 0)
(0.999684 0.00035988 0)
(0.999091 0.00053669 0)
(0.999786 -0.000134929 0)
(1.00029 -0.000298484 0)
(1.00017 0.000272423 0)
(0.999618 0.000949336 0)
(0.99956 0.00142497 0)
(0.999846 0.00183754 0)
(1.00029 0.00231656 0)
(1.00043 0.00290271 0)
(1.00054 0.00345204 0)
(1.00065 0.00380316 0)
(1.00023 -0.000504869 0)
(0.999417 -0.0015964 0)
(0.998313 0.000234655 0)
(0.99927 -0.000308599 0)
(0.999457 -0.00148866 0)
(0.998108 0.000204295 0)
(0.998825 0.00089125 0)
(1.00007 9.06441e-05 0)
(0.999759 0.000286796 0)
(0.999056 0.000590275 0)
(0.999686 8.33513e-05 0)
(1.00034 -0.000164036 0)
(1.00036 0.000305441 0)
(0.99981 0.00100628 0)
(0.999709 0.00150258 0)
(0.999999 0.00185355 0)
(1.0005 0.00224816 0)
(1.00067 0.00275697 0)
(1.00075 0.00330884 0)
(1.0008 0.00368421 0)
(1.00021 -0.00041949 0)
(0.999543 -0.00149454 0)
(0.998479 4.09778e-05 0)
(0.999225 -0.000147128 0)
(0.999557 -0.0013066 0)
(0.998365 -1.5709e-06 0)
(0.998864 0.000833616 0)
(1.00004 0.000205242 0)
(0.99983 0.000269624 0)
(0.999051 0.000636313 0)
(0.999595 0.000276474 0)
(1.00037 -1.97027e-05 0)
(1.00054 0.000339125 0)
(1.00002 0.00103337 0)
(0.999862 0.00157092 0)
(1.00013 0.00188233 0)
(1.00067 0.00219893 0)
(1.00091 0.00262243 0)
(1.00099 0.00312643 0)
(1.00095 0.00354922 0)
(1.00018 -0.000352687 0)
(0.999649 -0.00137084 0)
(0.99865 -0.000138658 0)
(0.999202 -4.03103e-05 0)
(0.999629 -0.0011011 0)
(0.998606 -0.000153429 0)
(0.998933 0.000730437 0)
(1.00001 0.000290119 0)
(0.999899 0.0002899 0)
(0.999071 0.000690042 0)
(0.999514 0.000454983 0)
(1.00037 0.000129643 0)
(1.00071 0.000379662 0)
(1.00025 0.00103677 0)
(1.00003 0.0016132 0)
(1.00025 0.00191637 0)
(1.00082 0.00216081 0)
(1.00112 0.00251208 0)
(1.00123 0.00294039 0)
(1.00113 0.00336578 0)
(1.00016 -0.000302239 0)
(0.999735 -0.00123297 0)
(0.998819 -0.0002953 0)
(0.999202 1.42024e-05 0)
(0.999678 -0.000891666 0)
(0.998824 -0.000242597 0)
(0.999025 0.000608883 0)
(0.999997 0.000331135 0)
(0.999971 0.000327526 0)
(0.999113 0.000751847 0)
(0.999444 0.000624322 0)
(1.00036 0.000284334 0)
(1.00087 0.000427895 0)
(1.00049 0.00103055 0)
(1.00021 0.00163125 0)
(1.00036 0.00195149 0)
(1.00094 0.00213388 0)
(1.0013 0.00241394 0)
(1.00145 0.0027834 0)
(1.00135 0.00315022 0)
(1.00014 -0.000262845 0)
(0.999802 -0.0010929 0)
(0.99898 -0.000414898 0)
(0.999226 2.30063e-05 0)
(0.999713 -0.000692365 0)
(0.999012 -0.000275444 0)
(0.999126 0.000493132 0)
(1 0.000334569 0)
(1.00005 0.000355773 0)
(0.999176 0.000822819 0)
(0.999385 0.0007943 0)
(1.00033 0.000445362 0)
(1.001 0.00048352 0)
(1.00073 0.00100767 0)
(1.00042 0.00162538 0)
(1.00047 0.00197796 0)
(1.00104 0.00212514 0)
(1.00146 0.00231769 0)
(1.00165 0.00264885 0)
(1.00156 0.00294877 0)
(1.00013 -0.000233149 0)
(0.999852 -0.000957556 0)
(0.999129 -0.000491472 0)
(0.999271 -7.67981e-06 0)
(0.999741 -0.000519595 0)
(0.999172 -0.000261751 0)
(0.999229 0.000401127 0)
(1.00002 0.000318561 0)
(1.00015 0.000347688 0)
(0.999266 0.000879731 0)
(0.999337 0.000970052 0)
(1.00027 0.00062079 0)
(1.0011 0.000558736 0)
(1.00097 0.000975418 0)
(1.00065 0.0015909 0)
(1.0006 0.00198841 0)
(1.00111 0.00213659 0)
(1.00159 0.00223978 0)
(1.00183 0.00251393 0)
(1.00175 0.00278542 0)
(1.00011 -0.000209374 0)
(0.999888 -0.00083412 0)
(0.99926 -0.000524324 0)
(0.99933 -6.01222e-05 0)
(0.999771 -0.00038673 0)
(0.999306 -0.000211096 0)
(0.999326 0.00034481 0)
(1.00004 0.000301786 0)
(1.00026 0.000315435 0)
(0.999392 0.000898489 0)
(0.999311 0.00113513 0)
(1.00019 0.00081316 0)
(1.00116 0.000652306 0)
(1.00119 0.000952051 0)
(1.0009 0.00152473 0)
(1.00074 0.00196632 0)
(1.00117 0.00214928 0)
(1.00168 0.00219572 0)
(1.00199 0.00237619 0)
(1.00191 0.0026448 0)
(1.0001 -0.000188225 0)
(0.999915 -0.000727705 0)
(0.999375 -0.000520778 0)
(0.999398 -0.000114948 0)
(0.999808 -0.000295839 0)
(0.999422 -0.000145801 0)
(0.999412 0.000321889 0)
(1.00005 0.000295874 0)
(1.00037 0.00027576 0)
(0.999554 0.000869625 0)
(0.999316 0.00127154 0)
(1.0001 0.00102026 0)
(1.00117 0.000767773 0)
(1.00138 0.000948454 0)
(1.00115 0.0014478 0)
(1.00092 0.00190724 0)
(1.00123 0.00213952 0)
(1.00172 0.00218172 0)
(1.00212 0.00225527 0)
(1.00206 0.0024999 0)
(1.00009 -0.000168916 0)
(0.999935 -0.000635581 0)
(0.999472 -0.000495364 0)
(0.999467 -0.000155755 0)
(0.999853 -0.000240389 0)
(0.999527 -8.08003e-05 0)
(0.999488 0.000326664 0)
(1.00006 0.000315277 0)
(1.00047 0.000241947 0)
(0.99975 0.000790357 0)
(0.99937 0.00135595 0)
(0.999995 0.00122376 0)
(1.00114 0.000910899 0)
(1.00152 0.000960568 0)
(1.00139 0.00137532 0)
(1.00113 0.00182448 0)
(1.00132 0.00209247 0)
(1.00174 0.00217315 0)
(1.0022 0.00217036 0)
(1.0022 0.0023441 0)
(1.00008 -0.000150554 0)
(0.99995 -0.000557074 0)
(0.999555 -0.000454352 0)
(0.999533 -0.000175165 0)
(0.999905 -0.000209172 0)
(0.999629 -2.9077e-05 0)
(0.999559 0.000351701 0)
(1.00005 0.000359068 0)
(1.00055 0.000237709 0)
(0.999967 0.000686766 0)
(0.999482 0.00136689 0)
(0.999906 0.00140335 0)
(1.00105 0.00107939 0)
(1.00162 0.000994841 0)
(1.00162 0.00130608 0)
(1.00134 0.00173244 0)
(1.00144 0.00201465 0)
(1.00175 0.00214152 0)
(1.00223 0.00212192 0)
(1.00232 0.00219722 0)
(1.00007 -0.000131931 0)
(0.999962 -0.00049178 0)
(0.999627 -0.000404818 0)
(0.999593 -0.000171811 0)
(0.999959 -0.000186203 0)
(0.999731 1.70867e-06 0)
(0.999631 0.00037832 0)
(1.00004 0.000417285 0)
(1.0006 0.000268295 0)
(1.00018 0.000591774 0)
(0.999653 0.00129757 0)
(0.999856 0.00152723 0)
(1.00093 0.00125699 0)
(1.00164 0.00106945 0)
(1.00181 0.00124695 0)
(1.00155 0.00163251 0)
(1.00158 0.00192236 0)
(1.00179 0.00207617 0)
(1.00223 0.00208701 0)
(1.00239 0.00208312 0)
(1.00007 -0.000113589 0)
(0.999971 -0.000434157 0)
(0.999693 -0.000355011 0)
(0.999647 -0.000148145 0)
(1.00001 -0.000162442 0)
(0.999833 1.81585e-05 0)