/*--------------------------------*- C++ -*----------------------------------*\
| =========                 |                                                 |
| \\      /  F ield         | OpenFOAM: The Open Source CFD Toolbox           |
|  \\    /   O peration     | Version:  2106                                  |
|   \\  /    A nd           | Website:  www.openfoam.com                      |
|    \\/     M anipulation  |                                                 |
\*---------------------------------------------------------------------------*/
FoamFile
{
    version     2.0;
    format      ascii;
    arch        "LSB;label=32;scalar=64";
    class       volScalarField;
    location    "0.895";
    object      p;
}
// * * * * * * * * * * * * * * * * * * * * * * * * * * * * * * * * * * * * * //

dimensions      [0 2 -2 0 0 0 0];

internalField   nonuniform List<scalar> 
9600
(
7.92298e-11
0.00152015
0.00191127
0.0019945
0.000146119
0.000817875
0.00128005
0.00234701
0.000965421
0.00228162
0.00224507
0.00260713
0.00225924
0.00345091
0.00373653
0.0047606
0.00537826
0.0073189
0.00911245
0.0140806
1.6087e-06
0.00152297
0.00190792
0.00198154
0.000155373
0.000826567
0.00127758
0.00234646
0.00096696
0.0022774
0.00224475
0.00260637
0.002267
0.00344915
0.00374326
0.00474558
0.00538934
0.0072844
0.00913632
0.0134976
4.66181e-06
0.0015259
0.00190144
0.00196763
0.000167881
0.000835011
0.00127568
0.00234619
0.000968281
0.00227335
0.00224755
0.00260663
0.00227712
0.00344745
0.00375005
0.00472756
0.00540434
0.00723496
0.00912592
0.0129413
9.2998e-06
0.0015283
0.00189329
0.00195472
0.000181551
0.00084291
0.00127733
0.00234499
0.00096876
0.00227281
0.00225072
0.00260595
0.00228783
0.00344499
0.00375519
0.00470588
0.00542064
0.00717477
0.00909459
0.0124204
1.63184e-05
0.00153022
0.00188289
0.00194279
0.000197079
0.00085026
0.00128273
0.00234146
0.000968222
0.00227319
0.00225242
0.00260314
0.002299
0.00343969
0.00375952
0.00467955
0.00543717
0.00710571
0.00904284
0.0119407
2.60841e-05
0.00153114
0.00187019
0.00193221
0.000214585
0.000856601
0.00129129
0.00233566
0.000966467
0.00227261
0.0022531
0.00259806
0.00231095
0.00343127
0.00376424
0.00464897
0.00545327
0.00702911
0.00897051
0.0114928
3.83261e-05
0.00153078
0.00185586
0.00192271
0.000233731
0.000861992
0.00130238
0.00232851
0.000963762
0.00227093
0.00225375
0.00259088
0.00232423
0.00341992
0.00377034
0.00461457
0.00546738
0.00694724
0.00887515
0.0110701
5.24828e-05
0.00152933
0.00184054
0.00191371
0.000254292
0.000866818
0.00131551
0.00232105
0.00096056
0.00226827
0.00225518
0.00258183
0.00233921
0.00340569
0.00377803
0.00457656
0.00547772
0.00686184
0.00875425
0.0106685
6.80033e-05
0.00152711
0.00182467
0.00190472
0.000276208
0.000871371
0.00133033
0.00231386
0.000957172
0.00226455
0.00225797
0.00257093
0.00235589
0.00338832
0.00378693
0.00453549
0.00548225
0.00677406
0.00860705
0.0102842
8.44831e-05
0.00152442
0.00180854
0.0018954
0.000299477
0.00087582
0.00134654
0.00230712
0.000953838
0.00225957
0.00226251
0.00255802
0.00237415
0.00336835
0.00379646
0.00449227
0.00547864
0.0066848
0.00843462
0.00991315
0.000101697
0.00152147
0.00179228
0.00188553
0.000324112
0.000880276
0.00136385
0.00230071
0.000950786
0.00225302
0.00226898
0.00254294
0.0023938
0.00334585
0.00380573
0.00444797
0.0054647
0.00659452
0.00823912
0.0095508
0.000119555
0.00151835
0.001776
0.00187496
0.000350119
0.000884802
0.00138203
0.00229445
0.00094823
0.00224459
0.00227753
0.00252562
0.00241454
0.00332129
0.00381364
0.00440354
0.00543875
0.00650299
0.00802368
0.00919301
0.000138043
0.00151512
0.00175974
0.00186358
0.000377498
0.000889414
0.00140086
0.00228817
0.00094637
0.00223399
0.00228819
0.00250609
0.00243594
0.00329533
0.00381893
0.00435966
0.00539978
0.0064091
0.0077922
0.00883657
0.00015717
0.00151174
0.00174356
0.00185133
0.000406234
0.000894122
0.00142019
0.00228173
0.000945358
0.00222104
0.00230091
0.00248449
0.00245741
0.00326868
0.00382036
0.00431675
0.00534734
0.00631085
0.00754922
0.00847956
0.000176955
0.00150817
0.0017275
0.00183813
0.000436293
0.000898941
0.00143988
0.00227502
0.000945299
0.00220564
0.00231556
0.00246115
0.00247824
0.003242
0.00381687
0.00427485
0.00528163
0.00620575
0.00729918
0.0081213
0.000197413
0.00150435
0.00171161
0.00182396
0.00046763
0.000903894
0.00145982
0.00226797
0.000946223
0.00218774
0.00233197
0.00243645
0.00249763
0.00321583
0.0038076
0.00423338
0.0052037
0.00609151
0.00704521
0.00776197
0.000218562
0.00150021
0.00169592
0.00180878
0.000500187
0.000909008
0.0014799
0.00226062
0.000948087
0.00216739
0.00234984
0.0024108
0.00251485
0.00319061
0.00379214
0.00419116
0.00511483
0.0059657
0.00678933
0.0074024
0.00024042
0.00149569
0.00168049
0.00179258
0.000533892
0.000914322
0.0015
0.00225302
0.000950803
0.0021447
0.00236901
0.00238461
0.00252923
0.00316659
0.00377049
0.00414685
0.00501591
0.00582854
0.00653318
0.00704397
0.000263002
0.00149073
0.00166534
0.00177538
0.000568657
0.000919932
0.00151993
0.00224527
0.000954246
0.00211979
0.00238871
0.0023583
0.00254024
0.00314351
0.00374276
0.00409934
0.0049075
0.00568013
0.00627822
0.00668849
0.000286323
0.00148529
0.00165051
0.0017572
0.000604369
0.000925987
0.00153947
0.00223749
0.000958286
0.00209274
0.00240895
0.00233228
0.00254753
0.00312088
0.00370872
0.00404768
0.00479013
0.00552078
0.00602542
0.00633825
0.000310399
0.00147933
0.00163603
0.00173811
0.000640898
0.000932661
0.00155834
0.00222989
0.000962815
0.00206362
0.00242946
0.0023076
0.00255095
0.00309842
0.00366794
0.0039909
0.00466448
0.00535067
0.00577504
0.0059956
0.000335248
0.00147281
0.00162188
0.00171822
0.000678079
0.00094017
0.00157629
0.00222263
0.000967758
0.00203245
0.0024501
0.00228273
0.00255037
0.00307609
0.00361995
0.00392844
0.00453122
0.00516973
0.00552668
0.00566264
0.00036088
0.00146571
0.00160804
0.00169766
0.000715706
0.000948755
0.00159307
0.00221586
0.000973116
0.00199913
0.00247095
0.00225793
0.00254519
0.00305382
0.00356417
0.00385987
0.00439082
0.00497789
0.00527962
0.00534129
0.000387298
0.00145806
0.00159445
0.00167659
0.000753554
0.000958638
0.00160845
0.00220964
0.000978978
0.00196343
0.00249215
0.00223355
0.00253475
0.00303159
0.00350029
0.00378401
0.00424651
0.00477596
0.00503302
0.00503313
0.000414491
0.00144987
0.00158104
0.0016552
0.000791389
0.000970019
0.00162226
0.00220398
0.000985594
0.00192501
0.00251367
0.00221017
0.00251885
0.00300933
0.00342847
0.00369913
0.00409995
0.0045655
0.00478564
0.00473948
0.000442442
0.00144123
0.00156765
0.00163375
0.000828971
0.000983055
0.00163445
0.00219879
0.000993449
0.00188332
0.00253509
0.00218846
0.00249345
0.00298657
0.00334945
0.00360345
0.00395247
0.00434908
0.00453561
0.00446076
0.000471125
0.00143224
0.00155412
0.00161246
0.000866115
0.000997818
0.00164507
0.00219385
0.00100305
0.00183806
0.0025557
0.00216932
0.00245866
0.00296261
0.00326485
0.00349537
0.00380468
0.0041306
0.00428058
0.00419475
0.000500485
0.00142303
0.00154024
0.00159156
0.000902709
0.0010143
0.00165436
0.00218868
0.00101475
0.00178939
0.00257437
0.00215385
0.00241389
0.00293615
0.00317665
0.00337433
0.00365558
0.00391481
0.00401969
0.00393542
0.000530439
0.00141382
0.00152579
0.00157117
0.000938687
0.00103241
0.0016627
0.00218277
0.00102877
0.00173774
0.00258952
0.00214293
0.00235905
0.00290304
0.00308658
0.00324096
0.00350322
0.00370607
0.00375604
0.00367429
0.000560881
0.00140489
0.00151057
0.00155137
0.0009741
0.00105188
0.00167065
0.00217571
0.00104506
0.00168373
0.00259936
0.002137
0.00229436
0.00286131
0.00299809
0.00309717
0.00334514
0.00350667
0.00349642
0.00340515
0.000591678
0.00139652
0.00149443
0.00153212
0.00100908
0.00107236
0.00167879
0.00216723
0.0010632
0.00162837
0.00260234
0.0021366
0.00222048
0.00280869
0.00291156
0.00294547
0.00317909
0.00331547
0.00324771
0.00312904
0.00062267
0.00138906
0.00147724
0.0015133
0.00104379
0.00109342
0.00168759
0.00215736
0.00108233
0.00157271
0.00259746
0.00214033
0.00213866
0.0027435
0.0028276
0.00278882
0.00300368
0.003129
0.00301343
0.0028535
0.000653661
0.0013829
0.00145893
0.00149462
0.00107859
0.00111448
0.00169724
0.00214663
0.00110126
0.00151739
0.00258393
0.00214425
0.00205065
0.00266491
0.00274647
0.00263028
0.00281834
0.00294405
0.0027933
0.00258708
0.000684428
0.00137837
0.00143969
0.00147553
0.00111391
0.00113523
0.00170772
0.00213598
0.0011189
0.00146236
0.00256132
0.00214873
0.00195779
0.0025724
0.00266862
0.00247337
0.00262245
0.00275825
0.00258585
0.00233512
0.000714741
0.0013758
0.00141992
0.00145512
0.00115005
0.00115579
0.00171837
0.00212647
0.00113454
0.00140675
0.00252941
0.00215306
0.0018614
0.00246524
0.00259393
0.00232224
0.00241551
0.00256896
0.00239017
0.00209975
0.000744369
0.00137541
0.00140031
0.00143233
0.00118693
0.00117654
0.00172801
0.00211936
0.00114812
0.00134911
0.00248793
0.00215695
0.0017635
0.00234295
0.00252021
0.00218137
0.00219894
0.00237216
0.00220572
0.00188213
0.000773115
0.00137728
0.00138177
0.00140616
0.0012242
0.00119824
0.00173513
0.0021154
0.00116064
0.00128766
0.00243621
0.00216079
0.00166669
0.0022048
0.00244353
0.00205526
0.00197748
0.00216296
0.0020301
0.00168405
0.000800846
0.00138131
0.00136543
0.00137575
0.00126097
0.00122229
0.00173814
0.00211425
0.00117415
0.00122124
0.00237303
0.00216507
0.00157424
0.00205037
0.00235868
0.00194662
0.00175881
0.00193795
0.00185756
0.00150694
0.000827501
0.00138724
0.00135251
0.00134068
0.00129576
0.00125023
0.00173585
0.00211466
0.00119104
0.00114985
0.00229654
0.00216941
0.00149017
0.00188106
0.00225906
0.00185402
0.00155134
0.00169799
0.00168001
0.00134906
0.000853087
0.00139462
0.00134416
0.001301
0.00132646
0.00128335
0.00172818
0.00211398
0.00121314
0.00107489
0.00220468
0.00217179
0.00141905
0.00170087
0.00213835
0.00177239
0.00136242
0.00144836
0.00149024
0.00120412
0.000877613
0.0014029
0.00134144
0.00125751
0.00135035
0.00132228
0.00171629
0.0021085
0.0012412
0.00100049
0.00209612
0.00216821
0.00136399
0.00151496
0.00199334
0.00169502
0.00119605
0.00119643
0.00128505
0.00106362
0.000901118
0.00141143
0.00134523
0.00121176
0.00136446
0.00136651
0.00170313
0.00209488
0.00127441
0.000932165
0.0019714
0.00215268
0.00132537
0.00133077
0.00182452
0.0016141
0.00105296
0.000949498
0.00106474
0.000920284
0.00092374
0.00141955
0.00135601
0.00116609
0.00136595
0.00141452
0.00169188
0.00207086
0.00130997
0.000874823
0.00183309
0.00211838
0.00130059
0.0011571
0.00163534
0.00152257
0.000932355
0.000714719
0.000830895
0.000769027
0.000945714
0.00142649
0.00137381
0.0011233
0.00135263
0.0014635
0.00168608
0.00203575
0.00134317
0.000831532
0.00168634
0.00206103
0.00128443
0.00100049
0.00143132
0.00141476
0.000831205
0.000499433
0.000586181
0.000605788
0.000967381
0.00143159
0.00139797
0.00108638
0.00132345
0.00150931
0.00168891
0.0019906
0.00136836
0.000802797
0.00153866
0.00198037
0.00126875
0.000862589
0.00121993
0.00128745
0.000743575
0.000310568
0.000336446
0.000426621
0.000989242
0.00143421
0.00142695
0.00105834
0.0012787
0.00155016
0.00170194
0.00193886
0.0013807
0.000787138
0.00139785
0.00187866
0.00124558
0.000741956
0.00100849
0.00114065
0.000661436
0.000152124
9.16986e-05
0.000229058
0.00101187
0.00143374
0.00145862
0.00104204
0.00122086
0.00157431
0.00172531
0.00188657
0.00137744
0.000780217
0.00126955
0.00176089
0.00121025
0.00063549
0.000802096
0.000976903
0.000576524
2.24647e-05
-0.000136499
1.50028e-05
0.00103583
0.00142984
0.00149024
0.00103997
0.00115428
0.00157729
0.00175722
0.00184052
0.00135864
0.000774475
0.00115547
0.00163507
0.00116237
0.000538727
0.000603523
0.000799793
0.000483059
-8.45636e-05
-0.000339356
-0.000207934
0.00106167
0.0014224
0.00151876
0.0010536
0.00108424
0.00155476
0.00178935
0.00180623
0.00132686
0.000762487
0.0010545
0.00150836
0.00110349
0.00044945
0.000413868
0.000612248
0.000378111
-0.000176072
-0.000512996
-0.000429018
0.00108959
0.00141176
0.00154134
0.001083
0.00101729
0.00150563
0.00181299
0.00178671
0.00128796
0.000740066
0.000963109
0.0013842
0.0010369
0.000366817
0.000235396
0.000417254
0.000259682
-0.00025871
-0.000657611
-0.000638242
0.00111946
0.00139904
0.00155586
0.00112595
0.000959879
0.00143061
0.00181841
0.00178056
0.0012508
0.000706607
0.000874257
0.00126328
0.000965659
0.000290712
7.05223e-05
0.000219877
0.00012689
-0.000339365
-0.000776366
-0.00082781
0.00115091
0.00137434
0.00156104
0.00117784
0.000917119
0.00133463
0.00179826
0.0017837
0.00122352
0.00066461
0.00078199
0.00114408
0.000891215
0.000220987
-7.92092e-05
2.59304e-05
-1.75847e-05
-0.000424103
-0.000875238
-0.00099259
0.00118368
0.00136298
0.0015564
0.00123253
0.000892547
0.00122753
0.00174699
0.00178692
0.00120986
0.000620847
0.000685497
0.00102254
0.000814023
0.000157136
-0.000213389
-0.000160726
-0.000168034
-0.000514214
-0.000961456
-0.00113171
0.00121715
0.00135391
0.00154215
0.00128377
0.000887446
0.00109879
0.00166383
0.00177725
0.00120959
0.000583544
0.000586174
0.000896189
0.000731741
9.85107e-05
-0.000332223
-0.000338072
-0.000321025
-0.000606128
-0.00103867
-0.00124827
0.00125054
0.00134799
0.00151975
0.00132607
0.000901666
0.0010038
0.00155175
0.00174362
0.00121898
0.000559189
0.000488667
0.000765622
0.000642014
4.20872e-05
-0.000435978
-0.000504355
-0.000476043
-0.000698328
-0.00110527
-0.00134518
0.00128293
0.00134583
0.00149122
0.00135567
0.000930376
0.000922567
0.00141961
0.00168099
0.00122662
0.00054931
0.000400486
0.000632481
0.000544822
-1.51384e-05
-0.000527004
-0.000657495
-0.000632169
-0.000793697
-0.00115994
-0.00142124
0.0013133
0.0013476
0.001459
0.00137132
0.000966459
0.000859363
0.00127995
0.00158931
0.00122091
0.00055108
0.000327471
0.000502612
0.000440903
-7.4373e-05
-0.000608263
-0.000797539
-0.000786522
-0.000895895
-0.00120628
-0.00147389
0.0013407
0.00135285
0.00142633
0.00137248
0.00100235
0.000814858
0.00114315
0.0014712
0.00119444
0.000555957
0.000269056
0.000383102
0.00033389
-0.000136135
-0.000680669
-0.00092556
-0.000937054
-0.00100542
-0.00125233
-0.00150419
0.00136447
0.0013604
0.00139557
0.0013602
0.0010323
0.000787027
0.0010171
0.00133661
0.00114451
0.00055591
0.0002223
0.000275319
0.000230465
-0.000199466
-0.000744958
-0.00104089
-0.00108303
-0.00112115
-0.00130439
-0.00151991
0.0013843
0.00136867
0.00136757
0.00133679
0.00105086
0.000772406
0.00090729
0.00119724
0.00107212
0.000543891
0.000181676
0.000177966
0.000133588
-0.000259371
-0.000801401
-0.00114214
-0.00122264
-0.0012423
-0.00136547
-0.0015315
0.0014001
0.001376
0.00134245
0.00130568
0.0010568
0.000762018
0.000814135
0.0010612
0.000984596
0.00051797
0.000141472
8.80965e-05
4.13143e-05
-0.00031258
-0.000846345
-0.00122802
-0.001352
-0.00136722
-0.0014366
-0.00154582
0.00141169
0.00138125
0.00131966
0.00127025
0.0010505
0.000750935
0.000735235
0.000932477
0.000889114
0.000479695
9.8004e-05
2.21527e-06
-4.79975e-05
-0.000361445
-0.000876557
-0.00129449
-0.00146684
-0.00149196
-0.00151805
-0.00156696
0.0014189
0.00138355
0.00129789
0.00123238
0.00103377
0.000736705
0.000665177
0.000811944
0.000789846
0.000433575
5.27779e-05
-8.24725e-05
-0.000136733
-0.000408167
-0.000893709
-0.00133721
-0.00156069
-0.00160943
-0.00160792
-0.00159821
0.00142153
0.00138231
0.001276
0.00119256
0.00100926
0.000718236
0.000601108
0.000699331
0.000689237
0.000382428
8.57672e-06
-0.000164366
-0.000227888
-0.000456048
-0.000901331
-0.00135567
-0.00162617
-0.00171013
-0.0016994
-0.00164069
0.00141935
0.00137711
0.00125348
0.00115071
0.000978346
0.000695719
0.000541227
0.000592647
0.000587953
0.00032689
-3.18848e-05
-0.000238711
-0.000320407
-0.000509505
-0.000903286
-0.00135312
-0.00166068
-0.00178335
-0.00178106
-0.00168956
0.00141201
0.00136758
0.0012298
0.0011069
0.000941039
0.000669155
0.000484491
0.000491098
0.000485968
0.000266297
-6.94412e-05
-0.000300717
-0.000406907
-0.000569362
-0.000905016
-0.00133254
-0.00166527
-0.00182303
-0.00184024
-0.0017341
0.00139936
0.00135335
0.00120459
0.00106144
0.000897437
0.000637833
0.00043025
0.000393766
0.000383219
0.000200899
-0.000106718
-0.000350069
-0.000480215
-0.000629107
-0.000909739
-0.00129688
-0.00164023
-0.00182759
-0.00186701
-0.00176228
0.0013814
0.00133409
0.00117732
0.00101469
0.000847945
0.000600508
0.000377483
0.000300277
0.000278444
0.000129683
-0.000145083
-0.000390098
-0.000536667
-0.000679052
-0.000914154
-0.00124857
-0.00158349
-0.0017941
-0.00185448
-0.00176004
0.00135836
0.00130962
0.00114721
0.00096676
0.000793401
0.00055604
0.000323806
0.000210587
0.000171101
4.98121e-05
-0.000186762
-0.000423528
-0.000578328
-0.000712217
-0.000909101
-0.00118672
-0.00149243
-0.00171446
-0.00179297
-0.00171165
0.0013304
0.00127991
0.00111357
0.000917715
0.000734499
0.000503896
0.000266828
0.000123086
6.09338e-05
-4.20381e-05
-0.000237365
-0.000453544
-0.000607029
-0.000725763
-0.000883786
-0.00110456
-0.00136326
-0.00157599
-0.00166495
-0.00159564
0.00129804
0.00124499
0.00107563
0.000867645
0.000672162
0.000443583
0.000204284
3.55483e-05
-5.25225e-05
-0.000148547
-0.000306794
-0.000490518
-0.000628019
-0.000721101
-0.000830993
-0.00098776
-0.00118125
-0.00135666
-0.0014381
-0.00137451
0.00126174
0.0012051
0.00103316
0.000815791
0.000607294
0.000376058
0.000133982
-5.53456e-05
-0.000170498
-0.00026997
-0.000403253
-0.00055482
-0.000662307
-0.000712744
-0.000754207
-0.000822416
-0.000919406
-0.00101158
-0.00104488
-0.000965722
0.00122207
0.00116053
0.000986799
0.000761957
0.000539823
0.000301949
5.53044e-05
-0.000152382
-0.000294462
-0.000406869
-0.00052831
-0.000658396
-0.000740615
-0.000745621
-0.000695981
-0.000623574
-0.000549641
-0.000474653
-0.000379431
-0.000222825
0.00117924
0.00111245
0.000937012
0.000706001
0.000470597
0.000221817
-3.25111e-05
-0.000257077
-0.000425009
-0.000555143
-0.000677958
-0.000803292
-0.000873351
-0.000850071
-0.000719782
-0.00044713
-2.88006e-05
0.000473823
0.000952671
0.00129453
0.00113316
0.00106265
0.000884711
0.000647608
0.000401065
0.000138308
-0.00013125
-0.000371226
-0.000561916
-0.000707191
-0.000818418
-0.000914436
-0.000921725
-0.000764536
-0.000423134
9.78241e-05
0.000694184
0.00123656
0.00162874
0.0018024
0.00108628
0.00101206
0.000829841
0.000586867
0.000330378
5.59167e-05
-0.000228738
-0.000494119
-0.000707977
-0.000858563
-0.000928627
-0.000921289
-0.000789405
-0.000468192
1.41815e-05
0.000578837
0.00112513
0.00157095
0.00186702
0.00196255
0.00104066
0.000962214
0.000774213
0.000525574
0.00025701
-2.73845e-05
-0.000310925
-0.000582933
-0.00082185
-0.000997811
-0.00105185
-0.000938435
-0.000627547
-0.000129454
0.00044802
0.00101524
0.0015226
0.00192163
0.00216941
0.0022094
0.000997946
0.000915411
0.00072341
0.000467633
0.000184694
-0.000114783
-0.000402162
-0.00063782
-0.000783576
-0.00084463
-0.000815412
-0.000725416
-0.000568593
-0.000276532
0.000163877
0.000711681
0.00129932
0.00182207
0.00217238
0.00226548
0.000960615
0.00087384
0.000679053
0.000417718
0.000134621
-0.000164241
-0.000461361
-0.000732448
-0.000937859
-0.00103344
-0.000956548
-0.000689499
-0.000291121
0.000213131
0.000777006
0.0013129
0.00176664
0.00210702
0.00230198
0.00229672
0.000930286
0.000838551
0.000636912
0.00036504
6.69523e-05
-0.000242963
-0.000536193
-0.000785108
-0.000932108
-0.000961785
-0.00086753
-0.000615322
-0.000238938
0.000220563
0.000741016
0.00125069
0.00168709
0.00201597
0.00220607
0.00220342
0.0166421
0.0104739
0.00235418
-0.00365689
-0.00548356
-0.00479085
-0.00371279
-0.00303119
-0.002763
-0.00263919
-0.00250077
-0.00243248
-0.00247984
-0.00252288
-0.00249091
-0.00242931
-0.00238944
-0.00239409
-0.0024413
-0.00248322
-0.00246807
-0.00242812
-0.00242467
-0.00245009
-0.00246405
-0.00246198
-0.00246231
-0.00247265
-0.00248212
-0.00249152
-0.00250483
-0.00251199
-0.00252902
-0.00257045
-0.00261209
-0.0026488
-0.00269629
-0.00275126
-0.00280256
-0.00284724
-0.00288683
-0.00292726
-0.00297156
-0.00300307
-0.00301204
-0.00301429
-0.00303085
-0.00306092
-0.00310614
-0.00316745
-0.0032265
-0.00327189
-0.00331051
-0.00334316
-0.00336747
-0.00338665
-0.00341188
-0.00344702
-0.00349411
-0.00354419
-0.00358375
-0.0036246
-0.00366611
-0.00370054
-0.00373465
-0.00376926
-0.00380367
-0.00383595
-0.00385883
-0.0038782
-0.00389606
-0.00391156
-0.0039337
-0.00393928
-0.00393436
-0.00394332
-0.00395231
-0.00394138
-0.00393287
-0.00394688
-0.00395052
-0.00394102
-0.00391869
-0.00390143
-0.00388549
-0.0038669
-0.00385167
-0.00382604
-0.0037999
-0.00376542
-0.00373315
-0.00370232
-0.003672
-0.00364055
-0.00361153
-0.00357296
-0.00353602
-0.00349961
-0.00346308
-0.00343451
0.015838
0.0103269
0.00244413
-0.00351532
-0.00539855
-0.00475019
-0.00368763
-0.00301339
-0.00275001
-0.00262924
-0.00249242
-0.00242516
-0.00247363
-0.00251767
-0.00248635
-0.00242519
-0.00238566
-0.00239062
-0.00243821
-0.00248055
-0.00246567
-0.00242585
-0.00242254
-0.00244816
-0.00246228
-0.00246032
-0.00246073
-0.00247116
-0.00248071
-0.00249018
-0.00250356
-0.00251078
-0.00252783
-0.00256933
-0.00261103
-0.00264778
-0.00269532
-0.00275034
-0.0028017
-0.00284642
-0.00288606
-0.00292652
-0.00297087
-0.00300243
-0.00301145
-0.00301372
-0.0030303
-0.00306039
-0.00310564
-0.00316698
-0.00322606
-0.00327147
-0.00331011
-0.00334278
-0.00336711
-0.0033863
-0.00341154
-0.0034467
-0.0034938
-0.0035439
-0.00358346
-0.00362433
-0.00366585
-0.00370029
-0.00373442
-0.00376904
-0.00380345
-0.00383575
-0.00385865
-0.00387803
-0.00389589
-0.00391141
-0.00393355
-0.00393915
-0.00393424
-0.0039432
-0.00395221
-0.00394129
-0.00393278
-0.00394679
-0.00395045
-0.00394096
-0.00391863
-0.00390137
-0.00388544
-0.00386685
-0.00385163
-0.003826
-0.00379987
-0.00376539
-0.00373313
-0.00370229
-0.00367198
-0.00364053
-0.00361151
-0.00357294
-0.00353601
-0.0034996
-0.00346307
-0.00343451
0.015097
0.010191
0.00263488
-0.00324576
-0.00524942
-0.0046944
-0.00366084
-0.00299365
-0.00273385
-0.00261628
-0.00248219
-0.00241691
-0.00246674
-0.00251177
-0.00248131
-0.00242094
-0.00238197
-0.00238726
-0.00243516
-0.00247788
-0.00246331
-0.00242367
-0.00242056
-0.00244639
-0.00246066
-0.0024588
-0.00245932
-0.00246985
-0.00247947
-0.00248899
-0.00250245
-0.00250972
-0.00252679
-0.00256835
-0.00261011
-0.00264689
-0.00269446
-0.00274954
-0.00280094
-0.0028457
-0.00288537
-0.00292587
-0.00297026
-0.00300188
-0.00301092
-0.00301321
-0.0030298
-0.00305992
-0.00310519
-0.00316657
-0.00322568
-0.00327111
-0.00330976
-0.00334245
-0.00336679
-0.003386
-0.00341125
-0.00344641
-0.00349352
-0.00354364
-0.00358322
-0.00362409
-0.00366563
-0.00370008
-0.00373421
-0.00376884
-0.00380327
-0.00383558
-0.00385849
-0.00387787
-0.00389575
-0.00391127
-0.00393343
-0.00393904
-0.00393413
-0.0039431
-0.00395212
-0.00394121
-0.00393269
-0.00394672
-0.00395039
-0.0039409
-0.00391858
-0.00390132
-0.0038854
-0.00386682
-0.0038516
-0.00382597
-0.00379985
-0.00376537
-0.0037331
-0.00370228
-0.00367196
-0.00364052
-0.0036115
-0.00357293
-0.003536
-0.00349959
-0.00346306
-0.00343451
0.0144029
0.0100575
0.00287549
-0.00290554
-0.00504486
-0.00461504
-0.00362221
-0.00296473
-0.00270947
-0.00259655
-0.00246754
-0.00240605
-0.00245754
-0.00250331
-0.00247401
-0.00241518
-0.00237739
-0.00238313
-0.00243114
-0.00247413
-0.00246008
-0.00242096
-0.00241821
-0.00244424
-0.00245869
-0.00245706
-0.00245777
-0.00246844
-0.00247813
-0.00248772
-0.00250127
-0.0025086
-0.0025257
-0.00256732
-0.00260914
-0.00264595
-0.00269357
-0.00274869
-0.00280014
-0.00284494
-0.00288466
-0.00292518
-0.00296962
-0.00300128
-0.00301035
-0.00301265
-0.00302926
-0.0030594
-0.0031047
-0.00316614
-0.0032253
-0.00327075
-0.00330941
-0.00334211
-0.00336646
-0.00338568
-0.00341093
-0.00344611
-0.00349324
-0.00354338
-0.00358296
-0.00362384
-0.0036654
-0.00369986
-0.003734
-0.00376864
-0.00380307
-0.0038354
-0.00385832
-0.00387771
-0.0038956
-0.00391112
-0.0039333
-0.00393893
-0.00393401
-0.003943
-0.00395203
-0.00394112
-0.0039326
-0.00394665
-0.00395033
-0.00394085
-0.00391852
-0.00390127
-0.00388535
-0.00386677
-0.00385156
-0.00382594
-0.00379982
-0.00376535
-0.00373308
-0.00370226
-0.00367195
-0.0036405
-0.00361149
-0.00357292
-0.00353599
-0.00349958
-0.00346304
-0.00343451
0.0137227
0.00990081
0.00311969
-0.00254848
-0.00482031
-0.00452505
-0.0035778
-0.00292934
-0.00267745
-0.00256954
-0.00244756
-0.00239162
-0.00244508
-0.00249129
-0.00246341
-0.00240705
-0.00237137
-0.00237786
-0.00242562
-0.0024686
-0.00245534
-0.00241725
-0.00241507
-0.00244128
-0.00245595
-0.00245475
-0.00245587
-0.00246677
-0.00247655
-0.00248621
-0.0024999
-0.00250734
-0.00252447
-0.00256613
-0.00260799
-0.00264486
-0.00269254
-0.0027477
-0.00279919
-0.00284406
-0.00288384
-0.0029244
-0.00296886
-0.00300055
-0.00300966
-0.00301198
-0.00302861
-0.00305878
-0.00310412
-0.00316564
-0.00322486
-0.00327033
-0.003309
-0.00334173
-0.00336609
-0.00338531
-0.00341058
-0.00344577
-0.00349292
-0.00354309
-0.00358268
-0.00362356
-0.00366514
-0.00369961
-0.00373376
-0.00376841
-0.00380285
-0.00383519
-0.00385812
-0.00387752
-0.00389542
-0.00391095
-0.00393314
-0.00393878
-0.00393388
-0.00394287
-0.00395192
-0.00394101
-0.00393249
-0.00394656
-0.00395026
-0.00394078
-0.00391845
-0.0039012
-0.0038853
-0.00386672
-0.00385152
-0.00382591
-0.00379978
-0.00376531
-0.00373305
-0.00370223
-0.00367192
-0.00364048
-0.00361147
-0.00357291
-0.00353597
-0.00349956
-0.00346302
-0.00343451
0.0130509
0.00971097
0.00335189
-0.00218888
-0.00458563
-0.00443031
-0.00353271
-0.00289184
-0.00264123
-0.00253785
-0.00242379
-0.00237439
-0.00242989
-0.00247618
-0.00244982
-0.0023966
-0.0023638
-0.00237132
-0.00241849
-0.00246111
-0.0024489
-0.00241241
-0.00241102
-0.00243728
-0.00245217
-0.00245161
-0.00245342
-0.00246471
-0.00247464
-0.00248442
-0.00249831
-0.00250594
-0.00252312
-0.00256474
-0.00260662
-0.00264358
-0.00269132
-0.00274648
-0.002798
-0.00284299
-0.0028829
-0.00292351
-0.00296796
-0.00299966
-0.00300881
-0.00301116
-0.00302781
-0.00305799
-0.00310339
-0.00316502
-0.00322434
-0.00326985
-0.00330854
-0.00334127
-0.00336564
-0.00338487
-0.00341016
-0.00344538
-0.00349256
-0.00354274
-0.00358234
-0.00362324
-0.00366483
-0.00369931
-0.00373348
-0.00376814
-0.00380258
-0.00383493
-0.00385788
-0.0038773
-0.00389521
-0.00391074
-0.00393294
-0.0039386
-0.0039337
-0.00394271
-0.00395177
-0.00394087
-0.00393236
-0.00394644
-0.00395016
-0.00394068
-0.00391837
-0.00390112
-0.00388522
-0.00386665
-0.00385146
-0.00382585
-0.00379974
-0.00376527
-0.00373301
-0.0037022
-0.00367189
-0.00364045
-0.00361145
-0.00357289
-0.00353595
-0.00349955
-0.00346299
-0.00343451
0.0123892
0.00948686
0.00356909
-0.00182719
-0.00433997
-0.00433017
-0.00348754
-0.00285361
-0.00260239
-0.00250307
-0.00239751
-0.00235528
-0.00241294
-0.00245915
-0.00243432
-0.00238455
-0.00235504
-0.00236373
-0.00241
-0.00245197
-0.00244103
-0.00240659
-0.00240614
-0.00243228
-0.00244729
-0.00244754
-0.00245025
-0.0024621
-0.00247228
-0.00248226
-0.00249647
-0.00250441
-0.00252165
-0.00256315
-0.002605
-0.00264207
-0.00268984
-0.00274494
-0.00279646
-0.00284163
-0.00288176
-0.00292246
-0.00296689
-0.00299861
-0.00300783
-0.00301021
-0.00302682
-0.00305698
-0.00310246
-0.00316423
-0.00322368
-0.00326928
-0.00330799
-0.00334072
-0.00336509
-0.00338434
-0.00340967
-0.00344492
-0.00349212
-0.00354233
-0.00358193
-0.00362283
-0.00366445
-0.00369895
-0.00373314
-0.00376781
-0.00380225
-0.0038346
-0.00385757
-0.00387701
-0.00389494
-0.00391046
-0.00393267
-0.00393836
-0.00393348
-0.00394251
-0.00395157
-0.00394068
-0.00393218
-0.00394629
-0.00395002
-0.00394056
-0.00391825
-0.003901
-0.00388512
-0.00386656
-0.00385138
-0.00382578
-0.00379967
-0.00376521
-0.00373295
-0.00370215
-0.00367185
-0.00364042
-0.00361142
-0.00357287
-0.00353592
-0.00349952
-0.00346295
-0.0034345
0.0117423
0.00923135
0.00376989
-0.00146263
-0.00408102
-0.00422245
-0.00344178
-0.00281521
-0.0025616
-0.00246571
-0.00236907
-0.00233465
-0.00239479
-0.00244096
-0.00241767
-0.00237149
-0.00234542
-0.00235532
-0.00240054
-0.0024417
-0.00243218
-0.0024001
-0.00240068
-0.00242656
-0.00244157
-0.00244265
-0.00244636
-0.00245885
-0.00246938
-0.00247966
-0.00249434
-0.00250277
-0.00252011
-0.00256139
-0.00260318
-0.00264037
-0.00268814
-0.00274305
-0.0027945
-0.00283987
-0.0028803
-0.00292115
-0.00296558
-0.00299736
-0.00300675
-0.0030092
-0.00302571
-0.00305577
-0.00310127
-0.00316318
-0.00322281
-0.00326855
-0.00330733
-0.00334006
-0.00336443
-0.00338371
-0.00340908
-0.00344436
-0.00349157
-0.0035418
-0.00358141
-0.00362233
-0.00366396
-0.0036985
-0.00373272
-0.0037674
-0.00380182
-0.00383418
-0.00385718
-0.00387666
-0.0038946
-0.0039101
-0.00393231
-0.00393804
-0.0039332
-0.00394223
-0.0039513
-0.00394042
-0.00393194
-0.00394608
-0.00394983
-0.00394038
-0.00391808
-0.00390085
-0.00388498
-0.00386642
-0.00385127
-0.00382568
-0.00379957
-0.00376512
-0.00373287
-0.00370208
-0.00367179
-0.00364036
-0.00361138
-0.00357283
-0.00353588
-0.00349948
-0.0034629
-0.00343449
0.0111159
0.00894757
0.00395088
-0.00109639
-0.00380748
-0.00410535
-0.00339508
-0.00277739
-0.00251943
-0.00242586
-0.00233847
-0.00231261
-0.0023757
-0.0024219
-0.00240016
-0.00235762
-0.00233511
-0.00234627
-0.00239042
-0.00243071
-0.00242268
-0.00239315
-0.00239484
-0.00242039
-0.00243532
-0.0024372
-0.00244191
-0.00245502
-0.00246591
-0.00247659
-0.00249189
-0.00250098
-0.00251851
-0.00255954
-0.00260124
-0.00263856
-0.00268628
-0.00274089
-0.00279214
-0.00283768
-0.00287846
-0.00291948
-0.00296392
-0.00299585
-0.00300558
-0.00300821
-0.00302461
-0.00305447
-0.0030999
-0.00316187
-0.00322167
-0.0032676
-0.0033065
-0.00333927
-0.00336366
-0.00338298
-0.00340839
-0.00344369
-0.0034909
-0.00354114
-0.00358077
-0.00362168
-0.00366333
-0.00369791
-0.00373219
-0.00376688
-0.00380127
-0.00383362
-0.00385666
-0.0038762
-0.00389416
-0.00390964
-0.00393183
-0.00393762
-0.00393283
-0.00394186
-0.00395091
-0.00394007
-0.00393163
-0.0039458
-0.00394957
-0.00394014
-0.00391786
-0.00390063
-0.00388478
-0.00386625
-0.00385111
-0.00382553
-0.00379944
-0.003765
-0.00373275
-0.00370197
-0.0036717
-0.00364028
-0.00361131
-0.00357277
-0.00353582
-0.00349943
-0.00346284
-0.00343447
0.010515
0.00863898
0.00410771
-0.000730994
-0.00351892
-0.00397732
-0.0033471
-0.00274089
-0.00247648
-0.00238359
-0.00230561
-0.00228915
-0.0023557
-0.00240205
-0.00238184
-0.00234299
-0.00232414
-0.00233669
-0.00237979
-0.0024192