/*--------------------------------*- C++ -*----------------------------------*\
| =========                 |                                                 |
| \\      /  F ield         | OpenFOAM: The Open Source CFD Toolbox           |
|  \\    /   O peration     | Version:  2106                                  |
|   \\  /    A nd           | Website:  www.openfoam.com                      |
|    \\/     M anipulation  |                                                 |
\*---------------------------------------------------------------------------*/
FoamFile
{
    version     2.0;
    format      ascii;
    arch        "LSB;label=32;scalar=64";
    class       volVectorField;
    location    "0.895";
    object      U;
}
// * * * * * * * * * * * * * * * * * * * * * * * * * * * * * * * * * * * * * //

dimensions      [0 1 -1 0 0 0 0];

internalField   nonuniform List<vector> 
9600
(
(0.840468 -0.00333548 0)
(1.1717 0.00605389 0)
(0.880884 0.00198096 0)
(1.11092 -0.00328477 0)
(0.824216 -0.00452738 0)
(1.17856 -0.00121077 0)
(0.874664 -0.00445028 0)
(1.13055 0.010503 0)
(0.897529 0.000844035 0)
(1.11432 0.00766653 0)
(0.878198 -0.00290784 0)
(1.10956 0.0029934 0)
(0.894503 -0.0036142 0)
(1.1213 0.00133961 0)
(0.895352 -0.00497032 0)
(1.12154 -0.00350491 0)
(0.879596 -0.0056622 0)
(1.12238 -0.00346377 0)
(0.863604 -0.00208379 0)
(1.12096 0.000975981 0)
(0.851522 -0.00350837 0)
(1.16184 0.00588178 0)
(0.896146 0.0023409 0)
(1.09974 -0.00256832 0)
(0.843228 -0.00543954 0)
(1.16303 -0.00153144 0)
(0.893052 -0.00413714 0)
(1.11704 0.0104716 0)
(0.921586 0.000925746 0)
(1.09571 0.00805052 0)
(0.913436 -0.00292237 0)
(1.08233 0.0028929 0)
(0.936635 -0.00396162 0)
(1.08247 0.00145356 0)
(0.951294 -0.00494742 0)
(1.06674 -0.00313378 0)
(0.954165 -0.00545049 0)
(1.043 -0.003419 0)
(0.966838 -0.0010408 0)
(1.00362 0.000908026 0)
(0.872416 -0.0036877 0)
(1.14038 0.00572466 0)
(0.921068 0.00269383 0)
(1.0799 -0.00203898 0)
(0.876019 -0.00618047 0)
(1.13364 -0.00182302 0)
(0.925373 -0.00382169 0)
(1.08991 0.010282 0)
(0.955626 0.00112835 0)
(1.06531 0.00825589 0)
(0.954735 -0.00276997 0)
(1.04583 0.00256989 0)
(0.976457 -0.00392973 0)
(1.04091 0.00113106 0)
(0.991196 -0.00452394 0)
(1.02408 -0.00329951 0)
(0.991469 -0.00474124 0)
(1.00442 -0.00386697 0)
(0.99238 3.44461e-05 0)
(0.987201 0.00125007 0)
(0.899935 -0.00382293 0)
(1.11004 0.00551574 0)
(0.948235 0.00303471 0)
(1.05567 -0.0016237 0)
(0.913731 -0.00670597 0)
(1.09677 -0.00217796 0)
(0.95971 -0.003485 0)
(1.0588 0.0100186 0)
(0.983666 0.00141452 0)
(1.03676 0.00823797 0)
(0.982075 -0.00247821 0)
(1.01882 0.00224461 0)
(0.994856 -0.00381848 0)
(1.01618 0.000806565 0)
(1.00268 -0.0041553 0)
(1.00617 -0.00335672 0)
(0.996775 -0.00424323 0)
(0.99402 -0.00390993 0)
(0.990049 0.000516587 0)
(0.986671 0.00196787 0)
(0.929186 -0.00391595 0)
(1.07659 0.00525249 0)
(0.971421 0.00336718 0)
(1.03293 -0.00131017 0)
(0.947355 -0.0070815 0)
(1.06155 -0.00257482 0)
(0.985305 -0.00316311 0)
(1.03344 0.00979657 0)
(0.99944 0.00169593 0)
(1.01774 0.00820553 0)
(0.994518 -0.00217362 0)
(1.0053 0.00202007 0)
(0.999129 -0.0037132 0)
(1.00504 0.000569814 0)
(1.00228 -0.00385964 0)
(0.999836 -0.00332359 0)
(0.994839 -0.00379774 0)
(0.990245 -0.00384242 0)
(0.986561 0.000974042 0)
(0.983941 0.00249286 0)
(0.955327 -0.00396677 0)
(1.04632 0.00500353 0)
(0.987296 0.00364778 0)
(1.01612 -0.00111484 0)
(0.97192 -0.00731924 0)
(1.03465 -0.00292644 0)
(0.998726 -0.00291202 0)
(1.01714 0.00965892 0)
(1.00527 0.00193541 0)
(1.00781 0.0082014 0)
(0.998903 -0.00191763 0)
(1.00062 0.00188397 0)
(0.999257 -0.00358972 0)
(1.00057 0.000378664 0)
(1.00021 -0.00359122 0)
(0.997322 -0.00330283 0)
(0.993296 -0.0033755 0)
(0.988598 -0.00370742 0)
(0.984745 0.00133751 0)
(0.98213 0.00301948 0)
(0.975249 -0.00397899 0)
(1.02347 0.00481048 0)
(0.995892 0.00384367 0)
(1.0064 -0.00101497 0)
(0.987228 -0.00744176 0)
(1.01772 -0.00318696 0)
(1.00263 -0.00274595 0)
(1.00788 0.00957673 0)
(1.0059 0.00212517 0)
(1.00341 0.00818199 0)
(1.00048 -0.00170738 0)
(0.999976 0.00178347 0)
(0.999415 -0.00343442 0)
(0.999099 0.000205326 0)
(0.998979 -0.00333751 0)
(0.996336 -0.00330457 0)
(0.992626 -0.00297422 0)
(0.988332 -0.00351406 0)
(0.984217 0.00162413 0)
(0.981883 0.00358963 0)
(0.98822 -0.00396425 0)
(1.00899 0.00468118 0)
(0.99943 0.00395326 0)
(1.00221 -0.000983455 0)
(0.995685 -0.00748411 0)
(1.00865 -0.00334789 0)
(1.00154 -0.00263369 0)
(1.00253 0.00950124 0)
(1.00473 0.00227013 0)
(1.0017 0.00811885 0)
(1.00137 -0.00152981 0)
(1.00073 0.00167747 0)
(1.00015 -0.00324649 0)
(0.999014 4.40961e-05 0)
(0.998606 -0.00307755 0)
(0.99609 -0.00330503 0)
(0.992513 -0.00260295 0)
(0.988731 -0.00326955 0)
(0.984633 0.00185454 0)
(0.982622 0.00417847 0)
(0.995365 -0.0039347 0)
(1.00129 0.00460456 0)
(1.0005 0.00399343 0)
(1.0012 -0.00100101 0)
(0.99993 -0.0074718 0)
(1.00427 -0.00342361 0)
(0.998889 -0.00253807 0)
(0.999134 0.00940217 0)
(1.00336 0.00237554 0)
(1.00116 0.00800281 0)
(1.00208 -0.00137448 0)
(1.00171 0.00155366 0)
(1.00108 -0.00303119 0)
(0.999463 -0.00010086 0)
(0.998746 -0.00280512 0)
(0.996229 -0.0032871 0)
(0.992756 -0.00226989 0)
(0.989389 -0.00297148 0)
(0.985585 0.00202392 0)
(0.983876 0.00475019 0)
(0.99858 -0.00389703 0)
(0.997854 0.00455859 0)
(1.00087 0.00398746 0)
(1.00157 -0.00104899 0)
(1.00179 -0.00741786 0)
(1.00211 -0.00343652 0)
(0.996397 -0.00243867 0)
(0.996916 0.00926979 0)
(1.00235 0.00244691 0)
(1.00114 0.00783675 0)
(1.00263 -0.00122875 0)
(1.00248 0.00141363 0)
(1.00183 -0.00279556 0)
(0.999987 -0.000233901 0)
(0.999091 -0.00252244 0)
(0.996576 -0.00324473 0)
(0.993222 -0.00197917 0)
(0.990162 -0.00262175 0)
(0.986751 0.0021317 0)
(0.985327 0.00527456 0)
(0.999623 -0.003853 0)
(0.996563 0.00452062 0)
(1.00128 0.00395604 0)
(1.00237 -0.00110865 0)
(1.00233 -0.00732837 0)
(1.00083 -0.00340907 0)
(0.994586 -0.00233189 0)
(0.995571 0.00910425 0)
(1.00179 0.00249281 0)
(1.00134 0.00763159 0)
(1.00299 -0.00108105 0)
(1.00293 0.00126179 0)
(1.00226 -0.00254748 0)
(1.00037 -0.000359972 0)
(0.999438 -0.00224216 0)
(0.99701 -0.00317188 0)
(0.993803 -0.00173137 0)
(0.990982 -0.0022307 0)
(0.987943 0.00219295 0)
(0.986762 0.00572982 0)
(0.999698 -0.00380235 0)
(0.996135 0.00447627 0)
(1.00182 0.00390839 0)
(1.00322 -0.00116687 0)
(1.00216 -0.00720666 0)
(0.999878 -0.00336097 0)
(0.993445 -0.00221975 0)
(0.994863 0.00891019 0)
(1.00159 0.00252183 0)
(1.00161 0.00739863 0)
(1.00317 -0.000922661 0)
(1.00308 0.00110231 0)
(1.00238 -0.0022929 0)
(1.00056 -0.000479625 0)
(0.999687 -0.00198032 0)
(0.997437 -0.00306559 0)
(0.994401 -0.0015237 0)
(0.991783 -0.00180994 0)
(0.989065 0.00223563 0)
(0.988064 0.00610277 0)
(0.99946 -0.00374457 0)
(0.995986 0.00441881 0)
(1.00238 0.00384876 0)
(1.00396 -0.00121626 0)
(1.0017 -0.00705492 0)
(0.999103 -0.00330603 0)
(0.992809 -0.00210744 0)
(0.994566 0.00869236 0)
(1.0016 0.00254078 0)
(1.00188 0.00714745 0)
(1.00323 -0.000749787 0)
(1.00306 0.000941476 0)
(1.0023 -0.00203785 0)
(1.0006 -0.000591972 0)
(0.999818 -0.00174543 0)
(0.997796 -0.00292821 0)
(0.994945 -0.00135048 0)
(0.992506 -0.00137549 0)
(0.990065 0.00228441 0)
(0.989189 0.00638424 0)
(0.999196 -0.00367968 0)
(0.995917 0.00434685 0)
(1.00285 0.00377965 0)
(1.00453 -0.00125466 0)
(1.00122 -0.00687584 0)
(0.998487 -0.00325134 0)
(0.99251 -0.00199992 0)
(0.994502 0.0084548 0)
(1.0017 0.00255436 0)
(1.0021 0.0068847 0)
(1.00321 -0.000563134 0)
(1.00296 0.000785764 0)
(1.00213 -0.00179023 0)
(1.00055 -0.000691576 0)
(0.999853 -0.00154429 0)
(0.998062 -0.00275947 0)
(0.995393 -0.00120914 0)
(0.993115 -0.000935231 0)
(0.990925 0.00236219 0)
(0.990138 0.0065744 0)
(0.999004 -0.00360829 0)
(0.995883 0.00426163 0)
(1.00319 0.00370319 0)
(1.00491 -0.00128333 0)
(1.00083 -0.00667326 0)
(0.99804 -0.00319947 0)
(0.992419 -0.0018979 0)
(0.99455 0.00820174 0)
(1.00182 0.00256532 0)
(1.00225 0.00661429 0)
(1.00315 -0.000364185 0)
(1.00284 0.000636205 0)
(1.00195 -0.00155332 0)
(1.00047 -0.000773958 0)
(0.999828 -0.00137524 0)
(0.998242 -0.00256474 0)
(0.995742 -0.00108556 0)
(0.993605 -0.000509089 0)
(0.991646 0.00247628 0)
(0.990934 0.00668155 0)
(0.998894 -0.0035314 0)
(0.995881 0.00416541 0)
(1.00339 0.00362145 0)
(1.00512 -0.00130503 0)
(1.00056 -0.00645163 0)
(0.997756 -0.00315056 0)
(0.992452 -0.00180134 0)
(0.994643 0.007936 0)
(1.00192 0.00257363 0)
(1.00233 0.00634035 0)
(1.00306 -0.000159457 0)
(1.00274 0.0004966 0)
(1.0018 -0.00132942 0)
(1.0004 -0.000835702 0)
(0.999775 -0.00123374 0)
(0.998355 -0.00235259 0)
(0.996006 -0.000960897 0)
(0.993992 -0.000118613 0)
(0.992247 0.00262164 0)
(0.991607 0.00672126 0)
(0.99885 -0.00345004 0)
(0.99591 0.00406045 0)
(1.00347 0.00353648 0)
(1.0052 -0.00132257 0)
(1.0004 -0.00621565 0)
(0.997613 -0.00310303 0)
(0.992563 -0.00170751 0)
(0.994745 0.00766214 0)
(1.00198 0.00257733 0)
(1.00236 0.00606489 0)
(1.00294 4.4702e-05 0)
(1.00267 0.000371395 0)
(1.00169 -0.00112136 0)
(1.00034 -0.000872412 0)
(0.999713 -0.00111665 0)
(0.998423 -0.00213029 0)
(0.996211 -0.00082958 0)
(0.994305 0.000239347 0)
(0.992755 0.00279373 0)
(0.992188 0.00671225 0)
(0.998848 -0.00336506 0)
(0.995966 0.00394859 0)
(1.00348 0.00344979 0)
(1.00516 -0.00133795 0)
(1.00031 -0.00596959 0)
(0.997577 -0.00305514 0)
(0.992728 -0.00161594 0)
(0.994845 0.00738364 0)
(1.00199 0.00257758 0)
(1.00233 0.00579018 0)
(1.00279 0.000246495 0)
(1.00261 0.000260363 0)
(1.0016 -0.000928899 0)
(1.00031 -0.000886212 0)
(0.999655 -0.00101185 0)
(0.998467 -0.00190517 0)
(0.996381 -0.000684325 0)
(0.994573 0.000570047 0)
(0.993197 0.00297794 0)
(0.992705 0.00666713 0)
(0.99887 -0.00327723 0)
(0.996044 0.00383147 0)
(1.00343 0.00336214 0)
(1.00507 -0.00135204 0)
(1.00025 -0.00571734 0)
(0.997611 -0.00300567 0)
(0.99293 -0.00152895 0)
(0.994941 0.00710506 0)
(1.00198 0.00257309 0)
(1.00228 0.00551851 0)
(1.00263 0.000442241 0)
(1.00255 0.000162138 0)
(1.00153 -0.000753023 0)
(1.00029 -0.000881849 0)
(0.999605 -0.000909332 0)
(0.998498 -0.00167449 0)
(0.996535 -0.000523991 0)
(0.994816 0.000879853 0)
(0.993597 0.00316516 0)
(0.993183 0.00660091 0)
(0.998905 -0.00318711 0)
(0.996137 0.00371003 0)
(1.00336 0.00327434 0)
(1.00493 -0.00136496 0)
(1.00021 -0.00546237 0)
(0.997685 -0.00295255 0)
(0.993156 -0.00144681 0)
(0.995037 0.00683105 0)
(1.00195 0.00255958 0)
(1.00222 0.00525177 0)
(1.00246 0.000630027 0)
(1.0025 7.84507e-05 0)
(1.00148 -0.000591946 0)
(1.00027 -0.000860148 0)
(0.999566 -0.000810445 0)
(0.998525 -0.00143483 0)
(0.996685 -0.000351198 0)
(0.995053 0.00117059 0)
(0.993971 0.00335162 0)
(0.993636 0.00652728 0)
(0.998946 -0.003095 0)
(0.996239 0.00358461 0)
(1.00327 0.00318659 0)
(1.00478 -0.00137613 0)
(1.00018 -0.00520632 0)
(0.997778 -0.00289538 0)
(0.993398 -0.00136935 0)
(0.995134 0.00656196 0)
(1.00192 0.00253831 0)
(1.00215 0.00498862 0)
(1.00228 0.000809028 0)
(1.00245 7.84854e-06 0)
(1.00143 -0.000440144 0)
(1.00025 -0.000824301 0)
(0.999537 -0.000716435 0)
(0.998552 -0.00119008 0)
(0.996837 -0.000169179 0)
(0.995291 0.00143763 0)
(0.994329 0.00353264 0)
(0.994072 0.00645451 0)
(0.998989 -0.00300119 0)
(0.996347 0.0034558 0)
(1.00318 0.00309795 0)
(1.00462 -0.00138386 0)
(1.00015 -0.00495247 0)
(0.997875 -0.00283108 0)
(0.993649 -0.00129983 0)
(0.995234 0.00630011 0)
(1.00188 0.00250879 0)
(1.00209 0.00472989 0)
(1.0021 0.000979468 0)
(1.0024 -5.57169e-05 0)
(1.00139 -0.000296043 0)
(1.00023 -0.000773808 0)
(0.999518 -0.000625998 0)
(0.998584 -0.000937548 0)
(0.996995 9.21381e-06 0)
(0.995535 0.00167677 0)
(0.994677 0.00370664 0)
(0.994494 0.00638663 0)
(0.999033 -0.00290599 0)
(0.996459 0.00332444 0)
(1.00309 0.00300781 0)
(1.00446 -0.00138785 0)
(1.00012 -0.00470253 0)
(0.997973 -0.00275824 0)
(0.993904 -0.0012387 0)
(0.995337 0.00604622 0)
(1.00184 0.00247274 0)
(1.00203 0.00447361 0)
(1.00192 0.00114612 0)
(1.00235 -0.000115529 0)
(1.00136 -0.000162234 0)
(1.00021 -0.000702558 0)
(0.99951 -0.000539747 0)
(0.998621 -0.000675249 0)
(0.997157 0.000193763 0)
(0.995789 0.00188875 0)
(0.995019 0.00387265 0)
(0.994903 0.00632401 0)
(0.999077 -0.00280984 0)
(0.996573 0.00319135 0)
(1.00299 0.00291561 0)
(1.0043 -0.00138719 0)
(1.0001 -0.00445734 0)
(0.998069 -0.00267766 0)
(0.994161 -0.00118423 0)
(0.995442 0.00579918 0)
(1.0018 0.00243312 0)
(1.00197 0.0042187 0)
(1.00174 0.00130978 0)
(1.00229 -0.000170525 0)
(1.00133 -4.23706e-05 0)
(1.00019 -0.000608581 0)
(0.999511 -0.000460945 0)
(0.998667 -0.000411824 0)
(0.997322 0.000396552 0)
(0.996053 0.00207264 0)
(0.995357 0.00402686 0)
(0.995296 0.00626762 0)
(0.999121 -0.00271305 0)
(0.996691 0.00305744 0)
(1.00289 0.00281948 0)
(1.00414 -0.0013787 0)
(1.00008 -0.00422074 0)
(0.998164 -0.00258606 0)
(0.99442 -0.00113899 0)
(0.995551 0.0055587 0)
(1.00176 0.00239077 0)
(1.00193 0.00395927 0)
(1.00156 0.00147385 0)
(1.00222 -0.000216305 0)
(1.00131 5.85537e-05 0)
(1.00016 -0.000485808 0)
(0.999524 -0.000385896 0)
(0.998723 -0.000155339 0)
(0.997489 0.000615791 0)
(0.996324 0.00222867 0)
(0.995694 0.00416183 0)
(0.995672 0.00622046 0)
(0.999165 -0.00261568 0)
(0.99681 0.00292285 0)
(1.0028 0.00271921 0)
(1.00398 -0.00136236 0)
(1.00006 -0.00399354 0)
(0.998257 -0.0024841 0)
(0.994679 -0.00110097 0)
(0.995662 0.00532131 0)
(1.00171 0.00234848 0)
(1.00189 0.00368982 0)
(1.00139 0.00163822 0)
(1.00216 -0.000249026 0)
(1.0013 0.000140701 0)
(1.00014 -0.000330814 0)
(0.999545 -0.00030749 0)
(0.998793 9.20428e-05 0)
(0.997656 0.000856789 0)
(0.9966 0.00236476 0)
(0.996031 0.0042676 0)
(0.996031 0.00619322 0)
(0.999209 -0.00251838 0)
(0.996932 0.00278888 0)
(1.0027 0.00261384 0)
(1.00382 -0.0013368 0)
(1.00004 -0.00377546 0)
(0.99835 -0.00237452 0)
(0.994939 -0.00106643 0)
(0.995776 0.00508299 0)
(1.00166 0.00231318 0)
(1.00186 0.00341526 0)
(1.00122 0.00179422 0)
(1.00208 -0.000260305 0)
(1.00129 0.000199537 0)
(1.00011 -0.000149141 0)
(0.999574 -0.000215988 0)
(0.998879 0.000317042 0)
(0.997824 0.00111043 0)
(0.996877 0.00249088 0)
(0.996373 0.00432706 0)
(0.996376 0.00618127 0)
(0.999254 -0.00242162 0)
(0.997055 0.00265714 0)
(1.0026 0.00250154 0)
(1.00366 -0.00130049 0)
(1.00003 -0.00356665 0)
(0.998442 -0.00225697 0)
(0.995199 -0.00103478 0)
(0.995894 0.0048412 0)
(1.0016 0.00228944 0)
(1.00184 0.00313822 0)
(1.00105 0.00193475 0)
(1.002 -0.000240685 0)
(1.0013 0.000232182 0)
(1.00009 4.65117e-05 0)
(0.999608 -0.000104696 0)
(0.998983 0.000514486 0)
(0.997995 0.0013653 0)
(0.997149 0.00262088 0)
(0.996719 0.00433747 0)
(0.996714 0.00615477 0)
(0.999298 -0.00232578 0)
(0.997179 0.00252867 0)
(1.0025 0.0023813 0)
(1.0035 -0.00125512 0)
(1.00002 -0.0033658 0)
(0.998534 -0.00213415 0)
(0.995459 -0.00100077 0)
(0.996015 0.0045915 0)
(1.00155 0.00227552 0)
(1.00183 0.00286197 0)
(1.00089 0.00205768 0)
(1.00191 -0.000184 0)
(1.00133 0.000242992 0)
(1.00008 0.000259151 0)
(0.999645 3.75754e-05 0)
(0.999103 0.000689417 0)
(0.998171 0.00161371 0)
(0.997412 0.00276311 0)
(0.997065 0.0043175 0)
(0.997056 0.00608061 0)
(0.999343 -0.00223109 0)
(0.997304 0.00240422 0)
(1.0024 0.00225215 0)
(1.00334 -0.00120117 0)
(1 -0.00317196 0)
(0.998624 -0.00201162 0)
(0.995718 -0.000959708 0)
(0.996141 0.00433079 0)
(1.00148 0.00227023 0)
(1.00182 0.00259045 0)
(1.00074 0.00215603 0)
(1.00181 -9.02265e-05 0)
(1.00136 0.000238083 0)
(1.00007 0.000479284 0)
(0.999681 0.00021116 0)
(0.999238 0.000843177 0)
(0.998356 0.00184505 0)
(0.997663 0.00291963 0)
(0.997404 0.00429612 0)
(0.99741 0.00595134 0)
(0.999387 -0.00213841 0)
(0.997428 0.00228503 0)
(1.0023 0.00211668 0)
(1.00318 -0.00114131 0)
(0.999987 -0.00298276 0)
(0.998714 -0.00188954 0)
(0.995974 -0.000911608 0)
(0.996273 0.00406119 0)
(1.00142 0.00226834 0)
(1.00182 0.00233428 0)
(1.0006 0.00222134 0)
(1.00171 3.1624e-05 0)
(1.0014 0.000226631 0)
(1.00008 0.000688892 0)
(0.999716 0.000409056 0)
(0.999384 0.000978973 0)
(0.998554 0.00204665 0)
(0.997905 0.00308085 0)
(0.997727 0.00429668 0)
(0.997771 0.00579102 0)
(0.999431 -0.00204709 0)
(0.997552 0.00217133 0)
(1.0022 0.00197155 0)
(1.00303 -0.00107531 0)
(0.999973 -0.00279729 0)
(0.998801 -0.00177058 0)
(0.996228 -0.000850944 0)
(0.99641 0.00378951 0)
(1.00135 0.00226422 0)
(1.00183 0.00210622 0)
(1.00048 0.00225763 0)
(1.00159 0.000182744 0)
(1.00146 0.000222317 0)
(1.00011 0.00088143 0)
(0.999747 0.000627839 0)
(0.999537 0.0011012 0)
(0.998766 0.00221447 0)
(0.998142 0.00323099 0)
(0.998031 0.00431995 0)
(0.998131 0.00563514 0)
(0.999475 -0.00195827 0)
(0.997674 0.00206454 0)
(1.00211 0.00182036 0)
(1.00288 -0.00100843 0)
(0.999958 -0.00260923 0)
(0.998886 -0.00166299 0)
(0.996476 -0.000775463 0)
(0.996553 0.00351743 0)
(1.00128 0.00225044 0)
(1.00184 0.00190584 0)
(1.00038 0.00227017 0)
(1.00147 0.000356198 0)
(1.00152 0.000235755 0)
(1.00016 0.00105295 0)
(0.999776 0.000862704 0)
(0.999693 0.00121315 0)
(0.998992 0.00235113 0)
(0.998379 0.00336885 0)
(0.998317 0.0043506 0)
(0.998476 0.00550741 0)
(0.999517 -0.00187216 0)
(0.997795 0.00196406 0)
(1.00201 0.00166739 0)
(1.00273 -0.000948636 0)
(0.999944 -0.00241076 0)
(0.99897 -0.00157005 0)
(0.996717 -0.000691351 0)
(0.996699 0.00325083 0)
(1.00121 0.00221951 0)
(1.00185 0.00172974 0)
(1.0003 0.00226806 0)
(1.00134 0.000541385 0)
(1.00158 0.000263713 0)
(1.00022 0.00120537 0)
(0.999803 0.00111217 0)
(0.999846 0.00131897 0)
(0.999233 0.00244936 0)
(0.998619 0.00349753 0)
(0.998588 0.00437514 0)
(0.998803 0.00540316 0)
(0.99956 -0.00178789 0)
(0.997912 0.00186931 0)
(1.00191 0.0015119 0)
(1.00259 -0.000901804 0)
(0.999929 -0.00219892 0)
(0.999052 -0.00148717 0)
(0.996952 -0.000605629 0)
(0.996846 0.00300447 0)
(1.00114 0.00216961 0)
(1.00187 0.00158129 0)
(1.00023 0.00225777 0)
(1.00122 0.000738935 0)
(1.00164 0.000307102 0)
(1.00031 0.00133226 0)
(0.999827 0.00136787 0)
(0.999991 0.00143152 0)
(0.999489 0.00250545 0)
(0.998864 0.00361424 0)
(0.998845 0.00439991 0)
(0.99911 0.00530719 0)
(0.999601 -0.00170627 0)
(0.998025 0.00177941 0)
(1.00182 0.00136268 0)
(1.00246 -0.000875144 0)
(0.999912 -0.00197277 0)
(0.999131 -0.00141366 0)
(0.997181 -0.000518198 0)
(0.996994 0.00278926 0)
(1.00108 0.00210069 0)
(1.00189 0.00145213 0)
(1.00019 0.00224399 0)
(1.00109 0.000942347 0)
(1.00171 0.000363311 0)
(1.00043 0.00142681 0)
(0.999854 0.0016233 0)
(1.00012 0.00156613 0)
(0.999759 0.00252552 0)
(0.999121 0.00370526 0)
(0.999088 0.0044371 0)
(0.999397 0.00521244 0)
(0.999641 -0.00162627 0)
(0.998135 0.0016911 0)
(1.00172 0.00122368 0)
(1.00233 -0.000871077 0)
(0.999894 -0.0017342 0)
(0.999205 -0.00134322 0)
(0.997405 -0.000440588 0)
(0.997138 0.00260915 0)
(1.00101 0.0020257 0)
(1.00192 0.00133224 0)
(1.00017 0.00223256 0)
(1.00096 0.00114883 0)
(1.00176 0.000430719 0)
(1.00056 0.00148487 0)
(0.999888 0.0018683 0)
(1.00023 0.00172971 0)
(1.00004 0.00252095 0)
(0.999397 0.00375111 0)
(0.99932 0.00448596 0)
(0.99966 0.00512559 0)
(0.99968 -0.0015477 0)
(0.99824 0.00160264 0)
(1.00162 0.0011005 0)
(1.00221 -0.000893743 0)
(0.999876 -0.00148702 0)
(0.999273 -0.0012655 0)
(0.997624 -0.000385079 0)
(0.99728 0.00246424 0)
(1.00095 0.00195577 0)
(1.00195 0.00121448 0)
(1.00017 0.00221702 0)
(1.00083 0.00135571 0)
(1.0018 0.000510549 0)
(1.00073 0.00150672 0)
(0.999938 0.00208996 0)
(1.00032 0.00192599 0)
(1.00031 0.00251506 0)
(0.999695 0.00374559 0)
(0.999548 0.00453261 0)
(0.999899 0.00506091 0)
(0.999717 -0.00146929 0)
(0.998342 0.00151053 0)
(1.00151 0.000996027 0)
(1.0021 -0.00094083 0)
(0.99986 -0.00124615 0)
(0.999332 -0.00117513 0)
(0.99784 -0.000351987 0)
(0.997421 0.00234626 0)
(1.00088 0.0018993 0)
(1.00199 0.00109979 0)
(1.0002 0.00218589 0)
(1.0007 0.00156398 0)
(1.00183 0.000609088 0)
(1.00091 0.00149252 0)
(1.00001 0.00226885 0)
(1.00039 0.00214635 0)
(1.00056 0.00252925 0)
(1.00002 0.0036971 0)
(0.999784 0.00455777 0)
(1.00011 0.00502269 0)
(0.999752 -0.00139086 0)
(0.998439 0.0014145 0)
(1.00141 0.000912775 0)
(1.002 -0.00100492 0)
(0.999847 -0.00102436 0)
(0.999378 -0.00105587 0)
(0.998052 -0.000345718 0)
(0.997563 0.00224122 0)
(1.0008 0.00187223 0)
(1.00203 0.000995314 0)
(1.00026 0.00212937 0)
(1.00057 0.00177006 0)
(1.00183 0.000736775 0)
(1.0011 0.00145772 0)
(1.00012 0.00239482 0)
(1.00044 0.00237072 0)
(1.00079 0.00257271 0)
(1.00035 0.00362021 0)
(1.00004 0.00454699 0)
(1.00031 0.00499464 0)
(0.999785 -0.00131232 0)
(0.998534 0.00131486 0)
(1.00129 0.000851663 0)
(1.00191 -0.00108136 0)
(0.999842 -0.000832735 0)
(0.999412 -0.000900903 0)
(0.998257 -0.00034951 0)
(0.997709 0.00213641 0)
(1.00071 0.0018836 0)
(1.00206 0.000909476 0)
(1.00034 0.0020393 0)
(1.00046 0.00196391 0)
(1.00181 0.000895975 0)
(1.00131 0.00142045 0)
(1.00026 0.0024665 0)
(1.00048 0.00257946 0)
(1.00098 0.00264699 0)
(1.00069 0.00353436 0)
(1.00031 0.00450213 0)
(1.0005 0.00496201 0)
(0.999816 -0.00123248 0)
(0.998626 0.00121037 0)
(1.00117 0.000809874 0)
(1.00182 -0.00116079 0)
(0.999847 -0.000685251 0)
(0.999433 -0.000713485 0)
(0.99845 -0.000355729 0)
(0.997862 0.00201997 0)
(1.00063 0.00191935 0)
(1.00209 0.000857909 0)
(1.00045 0.00191243 0)
(1.00037 0.00212665 0)
(1.00176 0.00109087 0)
(1.0015 0.00139954 0)
(1.00044 0.00248862 0)
(1.00054 0.00276119 0)
(1.00114 0.00274533 0)
(1.00101 0.00344918 0)
(1.0006 0.00442522 0)
(1.0007 0.00491901 0)
(0.999843 -0.00115027 0)
(0.998716 0.00109861 0)
(1.00104 0.000787694 0)
(1.00173 -0.00123398 0)
(0.999866 -0.000588445 0)
(0.999443 -0.000499709 0)
(0.998626 -0.000358223 0)
(0.998023 0.00188467 0)
(1.00053 0.00196711 0)
(1.00209 0.000849193 0)
(1.00058 0.00176526 0)
(1.0003 0.00224109 0)
(1.00169 0.00131249 0)
(1.00168 0.0014108 0)
(1.00065 0.00247173 0)
(1.0006 0.00290701 0)
(1.00126 0.00286014 0)
(1.00132 0.00337091 0)
(1.00092 0.00431504 0)
(1.0009 0.00486406 0)
(0.999868 -0.00106643 0)
(0.998804 0.000979703 0)
(1.00091 0.000780912 0)
(1.00165 -0.00129055 0)
(0.999901 -0.000544285 0)
(0.999444 -0.000273388 0)
(0.998782 -0.000332704 0)
(0.998193 0.00172819 0)
(1.00045 0.00201481 0)
(1.00207 0.000889748 0)
(1.00073 0.00162064 0)
(1.00028 0.00230143 0)
(1.0016 0.00153523 0)
(1.00183 0.00145938 0)
(1.00088 0.00243142 0)
(1.00069 0.00300745 0)
(1.00135 0.00298473 0)
(1.00159 0.00331247 0)
(1.00124 0.0041756 0)
(1.00111 0.00479392 0)
(0.999891 -0.000979273 0)
(0.998892 0.00085182 0)
(1.00077 0.000784809 0)
(1.00156 -0.00131928 0)
(0.999953 -0.000550801 0)
(0.999444 -4.99264e-05 0)
(0.998912 -0.000268461 0)
(0.998368 0.00155954 0)
(1.00037 0.00204428 0)
(1.00203 0.000976076 0)
(1.00087 0.00149626 0)
(1.00028 0.0023068 0)
(1.00151 0.00173868 0)
(1.00195 0.00154474 0)
(1.00112 0.00239163 0)
(1.00081 0.00306418 0)
(1.00141 0.0031092 0)
(1.00182 0.00328733 0)
(1.00158 0.00401742 0)
(1.00134 0.0046955 0)
(0.99991 -0.000889241 0)
(0.998979 0.000714653 0)
(1.00063 0.0007966 0)
(1.00146 -0.00131199 0)
(1.00002 -0.000599628 0)
(0.999447 0.000150002 0)
(0.999013 -0.00015535 0)
(0.998544 0.00139326 0)
(1.00031 0.00204672 0)
(1.00196 0.00109431 0)
(1.00101 0.00140758 0)
(1.00032 0.00226911 0)
(1.00142 0.00191064 0)
(1.00204 0.00165178 0)
(1.00136 0.00236112 0)
(1.00095 0.00308169 0)
(1.00147 0.00321547 0)
(1.002 0.00329894 0)
(1.0019 0.00386301 0)
(1.00159 0.00456057 0)
(0.999926 -0.000797285 0)
(0.999068 0.00057086 0)
(1.0005 0.000811557 0)
(1.00135 -0.00126337 0)
(1.0001 -0.000678053 0)
(0.999463 0.000302749 0)
(0.999087 8.05026e-06 0)
(0.998713 0.00124662 0)
(1.00028 0.0020073 0)
(1.00188 0.00122618 0)
(1.00113 0.00136452 0)
(1.00038 0.00220871 0)
(1.00135 0.00203961 0)
(1.0021 0.00176258 0)
(1.00159 0.00233858 0)
(1.00112 0.00306816 0)
(1.00153 0.00328839 0)
(1.00214 0.00333301 0)
(1.00219 0.00373436 0)
(1.00187 0.00439142 0)
(0.99994 -0.000703554 0)
(0.999157 0.000423779 0)
(1.00037 0.000822584 0)
(1.00123 -0.00116924 0)
(1.0002 -0.000776008 0)
(0.999499 0.000398483 0)
(0.999138 0.000203027 0)
(0.998865 0.00113387 0)
(1.00026 0.00193037 0)
(1.0018 0.00134729 0)
(1.00122 0.00137187 0)
(1.00046 0.00214758 0)
(1.00129 0.00212985 0)
(1.00214 0.00186553 0)
(1.0018 0.00232273 0)
(1.0013 0.00303612 0)
(1.0016 0.00333005 0)
(1.00224 0.00337124 0)
(1.00243 0.00364272 0)
(1.00215 0.00420764 0)
(0.999952 -0.000609734 0)
(0.999247 0.000278656 0)
(1.00026 0.000821637 0)
(1.0011 -0.00103388 0)
(1.00029 -0.000876404 0)
(0.999563 0.000429161 0)
(0.999175 0.000412486 0)
(0.998994 0.00107284 0)
(1.00027 0.00183093 0)
(1.00173 0.00144447 0)
(1.0013 0.00141294 0)
(1.00055 0.00209796 0)
(1.00125 0.00219363 0)
(1.00217 0.00195781 0)
(1.002 0.00230924 0)
(1.0015 0.00298769 0)
(1.00168 0.00334437 0)
(1.00231 0.00340064 0)
(1.00263 0.00357979 0)
(1.00243 0.00403042 0)
(0.999961 -0.000518863 0)
(0.999338 0.000146397 0)
(1.00016 0.000797679 0)
(1.00096 -0.000866163 0)
(1.00038 -0.000951133 0)
(0.999658 0.000390583 0)
(0.99921 0.000607273 0)
(0.999096 0.00107718 0)
(1.00028 0.00172463 0)
(1.00166 0.00150813 0)
(1.00136 0.00146906 0)
(1.00065 0.00207002 0)
(1.00122 0.00224165 0)
(1.00217 0.00204458 0)
(1.00217 0.00230099 0)
(1.00171 0.00292369 0)
(1.00179 0.0033289 0)
(1.00237 0.00341553 0)
(1.00279 0.00353229 0)
(1.00269 0.00387213 0)
(0.999969 -0.000433069 0)
(0.999429 3.35422e-05 0)
(1.00009 0.000748685 0)
(1.00081 -0.000679466 0)
(1.00046 -0.00098362 0)
(0.99978 0.000300588 0)
(0.999256 0.00076616 0)
(0.999173 0.00113241 0)
(1.0003 0.0016383 0)
(1.00162 0.0015264 0)
(1.00141 0.00152561 0)
(1.00074 0.00205964 0)
(1.00121 0.00228143 0)
(1.00217 0.00212479 0)
(1.00233 0.00230295 0)
(1.00192 0.00285336 0)
(1.00191 0.00328385 0)
(1.00242 0.00341075 0)
(1.0029 0.00349348 0)
(1.00291 0.00373738 0)
(0.999976 -0.000354659 0)
(0.999517 -5.84801e-05 0)
(1.00004 0.000674184 0)
(1.00066 -0.00048816 0)
(1.00051 -0.000961605 0)
(0.999927 0.000176245 0)
(0.999323 0.000870852 0)
(0.99923 0.00122306 0)
(1.00032 0.0015861 0)
(1.00158 0.0015209 0)
(1.00147 0.00156124 0)
(1.00084 0.00205676 0)
(1.00121 0.00231435 0)
(1.00217 0.00219685 0)
(1.00245 0.00231277 0)
(1.00213 0.00278726 0)
(1.00204 0.00321815 0)
(1.00248 0.00337929 0)
(1.00299 0.00345226 0)
(1.0031 0.00362405 0)
(0.999982 -0.000285414 0)
(0.9996 -0.000127046 0)
(1.00001 0.000575733 0)
(1.00052 -0.00030412 0)
(1.00055 -0.000880597 0)
(1.00009 4.45877e-05 0)
(0.999421 0.000896699 0)
(0.999279 0.00133267 0)
(1.00031 0.00157661 0)
(1.00156 0.0015149 0)
(1.00153 0.00157643 0)
(1.00094 0.00205021 0)
(1.00122 0.00234086 0)
(1.00215 0.0022617 0)
(1.00256 0.00232712 0)
(1.00232 0.00272817 0)
(1.00219 0.00314642 0)
(1.00255 0.00332705 0)
(1.00306 0.00339538 0)
(1.00325 0.00352495 0)
(0.999988 -0.00022574 0)
(0.999675 -0.000172223 0)
(0.999997 0.000466643 0)
(1.00039 -0.000142736 0)
(1.00056 -0.000749915 0)
(1.00024 -7.26689e-05 0)
(0.999552 0.000854946 0)
(0.999334 0.00142448 0)
(1.0003 0.00161471 0)
(1.00153 0.00151078 0)
(1.00159 0.00157976 0)
(1.00105 0.00202971 0)
(1.00125 0.00235254 0)
(1.00214 0.00231733 0)
(1.00264 0.00234533 0)
(1.0025 0.00267393 0)
(1.00234 0.00307319 0)
(1.00262 0.00327135 0)
(1.00312 0.00332463 0)
(1.00336 0.00342867 0)
(0.999994 -0.000176891 0)
(0.999741 -0.000192895 0)
(1.00001 0.000354148 0)
(1.00029 -1.10416e-05 0)
(1.00054 -0.000587773 0)
(1.00039 -0.000156574 0)
(0.999715 0.000768463 0)
(0.999411 0.00147676 0)
(1.00028 0.00167775 0)
(1.00149 0.0015343 0)
(1.00165 0.00157416 0)
(1.00117 0.00200082 0)
(1.00129 0.00234524 0)
(1.00212 0.00235588 0)
(1.00271 0.00236304 0)
(1.00267 0.00262414 0)
(1.0025 0.00299184 0)
(1.0027 0.00321404 0)
(1.00317 0.00325479 0)
(1.00345 0.00332485 0)
(1 -0.00013753 0)
(0.999798 -0.000191217 0)
(1.00003 0.000244391 0)
(1.00021 8.99441e-05 0)
(1.00051 -0.000413279 0)
(1.00051 -0.000181166 0)
(0.9999 0.000658301 0)
(0.999516 0.00147698 0)
(1.00026 0.00173675 0)
(1.00144 0.00159023 0)
(1.00171 0.00157703 0)
(1.00129 0.00196277 0)
(1.00135 0.00232371 0)
(1.00212 0.00237468 0)
(1.00276 0.00237257 0)
(1.00282 0.00258044 0)
(1.00267 0.00290667 0)
(1.00278 0.00314573 0)
(1.0032 0.0031973 0)
(1.00352 0.00322018 0)
(1.00001 -0.000108105 0)
(0.999844 -0.00016998 0)
(1.00006 0.000149219 0)
(1.00015 0.000156229 0)
(1.00047 -0.000235791 0)
(1.00061 -0.000152013 0)
(1.00009 0.000552518 0)
(0.999651 0.00142076 0)
(1.00025 0.00177831 0)
(1.00139 0.00164993 0)
(1.00174 0.00160397 0)
(1.00142 0.00192404 0)
(1.00143 0.00228479 0)
(1.00212 0.00237669 0)
(1.0028 0.00236886 0)
(1.00295 0.00253308 0)
(1.00283 0.00282253 0)
(1.00288 0.00306038 0)
(1.00322 0.00314226 0)
(1.00356 0.00313104 0)
(1.00001 -8.60083e-05 0)
(0.999879 -0.00013617 0)
(1.0001 7.61449e-05 0)
(1.00012 0.000188809 0)
(1.00043 -7.33103e-05 0)
(1.00068 -8.33016e-05 0)
(1.00028 0.000473409 0)
(0.999814 0.00133188 0)
(1.00027 0.0017848 0)
(1.00133 0.00170689 0)
(1.00177 0.00163991 0)
(1.00153 0.00190459 0)
(1.00151 0.00223569 0)
(1.00213 0.00235921 0)
(1.00282 0.00235676 0)
(1.00307 0.00247653 0)
(1.00299 0.00273558 0)
(1.00299 0.0029631 0)
(1.00325 0.00307106 0)
(1.00357 0.00305831 0)
(1.00002 -6.94724e-05 0)
(0.999905 -9.71614e-05 0)
(1.00013 2.9317e-05 0)
(1.00011 0.000200385 0)
(1.00039 7.05607e-05 0)
(1.00072 2.20554e-05 0)
(1.00045 0.000432461 0)
(0.999992 0.0012337 0)
(1.00031 0.00174533 0)
(1.00128 0.0017507 0)
(1.00178 0.00167233 0)
(1.00163 0.00189501 0)
(1.0016 0.00219557 0)
(1.00215 0.00232368 0)
(1.00284 0.00233411 0)
(1.00317 0.0024166 0)
(1.00313 0.00264022 0)
(1.00311 0.00286126 0)
(1.00329 0.00298264 0)
(1.00356 0.00298879 0)
(1.00003 -5.5472e-05 0)
(0.999924 -5.91929e-05 0)
(1.00017 9.26758e-06 0)
(1.00012 0.000201235 0)
(1.00036 0.000190086 0)
(1.00075 0.00014331 0)
(1.00059 0.000435899 0)
(1.00017 0.00114312 0)
(1.00038 0.0016819 0)
(1.00125 0.00176079 0)
(1.00178 0.00170409 0)
(1.00172 0.0018814 0)
(1.00168 0.00216538 0)
(1.00217 0.00228774 0)
(1.00285 0.00229703 0)
(1.00324 0.00235346 0)
(1.00327 0.00253659 0)
(1.00323 0.00274712 0)
(1.00334 0.00288083 0)
(1.00354 0.00290323 0)
(1.00004 -4.36057e-05 0)
(0.999936 -2.38054e-05 0)
(1.0002 1.07798e-05 0)
(1.00014 0.000202126 0)
(1.00035 0.000276818 0)
(1.00076 0.00025714 0)
(1.00071 0.000471894 0)
(1.00035 0.00107317 0)
(1.00047 0.00161202 0)
(1.00123 0.00174129 0)
(1.00178 0.00171882 0)
(1.0018 0.00186706 0)
(1.00176 0.00212992 0)
(1.00218 0.00225947 0)
(1.00285 0.00225834 0)
(1.0033 0.00228549 0)
(1.00339 0.00243149 0)
(1.00335 0.00261959 0)
(1.0034 0.00276647 0)
(1.00354 0.00280209 0)
(1.00004 -3.3023e-05 0)
(0.999945 9.84297e-06 0)