/*--------------------------------*- C++ -*----------------------------------*\
| =========                 |                                                 |
| \\      /  F ield         | OpenFOAM: The Open Source CFD Toolbox           |
|  \\    /   O peration     | Version:  2106                                  |
|   \\  /    A nd           | Website:  www.openfoam.com                      |
|    \\/     M anipulation  |                                                 |
\*---------------------------------------------------------------------------*/
FoamFile
{
    version     2.0;
    format      ascii;
    arch        "LSB;label=32;scalar=64";
    class       volScalarField;
    location    "0.305";
    object      p;
}
// * * * * * * * * * * * * * * * * * * * * * * * * * * * * * * * * * * * * * //

dimensions      [0 2 -2 0 0 0 0];

internalField   nonuniform List<scalar> 
9600
(
-1.09145e-10
-0.000714679
4.47798e-05
0.000165914
-0.00106363
0.000255698
-0.000924759
-0.000968692
-0.000943464
-0.000425372
-0.00147329
-7.9726e-05
-0.000508797
0.000512594
0.000340449
0.00104732
0.00169416
0.00407076
0.00557269
0.0103995
-2.80864e-07
-0.000715453
4.62365e-05
0.000157212
-0.00105055
0.000216825
-0.000928657
-0.00095733
-0.000944336
-0.000416379
-0.00146758
-8.63739e-05
-0.00050895
0.000509249
0.00034979
0.00104158
0.00172379
0.00403918
0.00561092
0.00979646
-1.10554e-06
-0.000716614
4.66194e-05
0.000146226
-0.00103534
0.00018499
-0.000925789
-0.000941197
-0.000948427
-0.000408187
-0.00145924
-9.84389e-05
-0.000505626
0.000505396
0.00036087
0.00103504
0.00174971
0.00400146
0.00559969
0.00922254
-2.62351e-06
-0.000718411
4.55547e-05
0.000133274
-0.00102238
0.000155551
-0.000917459
-0.000926563
-0.000957337
-0.000400605
-0.00144546
-0.000111093
-0.000501354
0.000500266
0.000371074
0.00102568
0.00177502
0.00394246
0.00557384
0.00868648
-4.94925e-06
-0.000721046
4.35293e-05
0.000117699
-0.00101004
0.000128262
-0.000906149
-0.000914627
-0.000970699
-0.000393361
-0.00142584
-0.00012522
-0.000498138
0.000492283
0.00038084
0.0010118
0.00180013
0.00387854
0.0055285
0.00819026
-8.08165e-06
-0.000724506
4.08762e-05
9.98099e-05
-0.000997127
0.000102614
-0.000893767
-0.000905393
-0.000987074
-0.000386526
-0.00140244
-0.000141559
-0.00049555
0.000481245
0.000391537
0.000993535
0.0018298
0.0038057
0.00546162
0.00772397
-1.19007e-05
-0.00072867
3.78574e-05
8.01767e-05
-0.000983546
7.77281e-05
-0.000881539
-0.000898314
-0.00100476
-0.000380164
-0.00137719
-0.000159366
-0.000492402
0.000467659
0.000404298
0.000971507
0.0018559
0.00372537
0.00537123
0.00728356
-1.62358e-05
-0.000733391
3.46471e-05
5.92226e-05
-0.000969423
5.28476e-05
-0.000869869
-0.000892581
-0.00102256
-0.000374295
-0.00135092
-0.000178067
-0.000488008
0.00045174
0.000419295
0.000946075
0.00188005
0.00363954
0.00525552
0.00686625
-2.09382e-05
-0.000738549
3.13044e-05
3.72343e-05
-0.000954817
2.74483e-05
-0.000858691
-0.000887486
-0.00103996
-0.000368983
-0.00132379
-0.000197728
-0.000482056
0.000433365
0.000436137
0.000917504
0.00190019
0.00355011
0.00511394
0.00646886
-2.59214e-05
-0.000744072
2.78191e-05
1.43821e-05
-0.000939768
1.25515e-06
-0.000847813
-0.000882617
-0.00105688
-0.000364318
-0.00129576
-0.000218633
-0.000474417
0.00041233
0.000454119
0.000886374
0.0019139
0.00345877
0.00494726
0.00608764
-3.1158e-05
-0.000749923
2.41561e-05
-9.2569e-06
-0.000924293
-2.58237e-05
-0.000837135
-0.00087779
-0.00107336
-0.000360379
-0.00126681
-0.000241063
-0.000465091
0.000388608
0.000472312
0.000853729
0.00191893
0.00336639
0.00475723
0.00571843
-3.66551e-05
-0.00075609
2.02723e-05
-3.36524e-05
-0.000908391
-5.37883e-05
-0.00082667
-0.000872905
-0.0010895
-0.000357213
-0.00123697
-0.000265212
-0.00045422
0.000362467
0.000489769
0.000820557
0.00191339
0.00327296
0.00454672
0.00535717
-4.24304e-05
-0.000762571
1.61216e-05
-5.87843e-05
-0.000892077
-8.25872e-05
-0.00081646
-0.000867878
-0.00110539
-0.000354847
-0.00120635
-0.000291147
-0.000442109
0.000334339
0.000505584
0.000787526
0.00189578
0.00317767
0.00431964
0.00500052
-4.85012e-05
-0.000769372
1.16559e-05
-8.46257e-05
-0.000875393
-0.00011213
-0.000806708
-0.000862632
-0.00112112
-0.000353252
-0.00117513
-0.000318863
-0.000429108
0.000304716
0.000518797
0.000754994
0.00186548
0.00307891
0.00408007
0.00464611
-5.4881e-05
-0.000776507
6.82601e-06
-0.000111136
-0.000858409
-0.000142298
-0.000797562
-0.000857069
-0.00113678
-0.000352388
-0.00114349
-0.000348266
-0.000415578
0.000274081
0.000528479
0.000722868
0.00182287
0.00297488
0.00383139
0.00429256
-6.15814e-05
-0.000783995
1.58179e-06
-0.000138263
-0.000841223
-0.000172943
-0.000789239
-0.000851071
-0.00115248
-0.000352223
-0.00111166
-0.000379156
-0.000401931
0.000242823
0.000533959
0.000690581
0.0017687
0.00286429
0.00357611
0.003939
-6.86121e-05
-0.000791855
-4.13058e-06
-0.000165937
-0.00082396
-0.000203891
-0.00078198
-0.000844469
-0.00116837
-0.000352686
-0.00107981
-0.000411382
-0.000388533
0.000211146
0.000534913
0.000657273
0.00170339
0.00274628
0.0033164
0.00358479
-7.5981e-05
-0.00080011
-1.03734e-05
-0.000194074
-0.000806779
-0.000234939
-0.00077605
-0.000837051
-0.00118462
-0.000353761
-0.00104803
-0.000444886
-0.000375596
0.000178969
0.00053126
0.000622152
0.00162672
0.00262115
0.00305481
0.00322937
-8.36951e-05
-0.000808783
-1.72217e-05
-0.000222574
-0.000789863
-0.00026585
-0.000771763
-0.000828597
-0.00120133
-0.000355515
-0.00101633
-0.00047972
-0.00036313
0.000145954
0.000522873
0.000584874
0.00153814
0.00248959
0.00279441
0.00287254
-9.1761e-05
-0.000817896
-2.47641e-05
-0.000251319
-0.00077343
-0.000296341
-0.000769485
-0.000818899
-0.00121853
-0.000358053
-0.000984614
-0.00051615
-0.000350927
0.000111689
0.000509159
0.000545709
0.00143687
0.00235115
0.00253846
0.00251507
-0.000100184
-0.000827471
-3.31093e-05
-0.000280157
-0.000757741
-0.000326083
-0.000769609
-0.000807812
-0.00123615
-0.000361683
-0.00095264
-0.000554608
-0.000338606
7.59494e-05
0.000488866
0.000505885
0.00132255
0.00220386
0.00229018
0.00215913
-0.000108969
-0.000837525
-4.23919e-05
-0.000308912
-0.000743087
-0.000354729
-0.000772461
-0.000795229
-0.00125409
-0.000366827
-0.000919907
-0.000595794
-0.000325962
3.90804e-05
0.000460149
0.000466879
0.00119607
0.00204511
0.00205215
0.0018085
-0.000118121
-0.000848064
-5.27734e-05
-0.000337378
-0.000729801
-0.000381916
-0.00077837
-0.000781116
-0.0012721
-0.000373876
-0.000885651
-0.000640611
-0.00031341
1.95251e-06
0.000420741
0.00042934
0.00105964
0.00187173
0.00182551
0.00146921
-0.00012765
-0.000859077
-6.44505e-05
-0.000365308
-0.000718251
-0.00040734
-0.000789062
-0.000765557
-0.00128979
-0.000377309
-0.00084889
-0.000689503
-0.000302152
-3.3997e-05
0.000368335
0.000392383
0.000917882
0.00168092
0.00160822
0.00114859
-0.000137568
-0.000870534
-7.76639e-05
-0.000392429
-0.000708769
-0.000430741
-0.000801543
-0.000748788
-0.00130671
-0.00039016
-0.000808584
-0.0007423
-0.000294152
-6.66455e-05
0.000301331
0.00035359
0.000776974
0.00147207
0.00139531
0.000852695
-0.000147896
-0.000882374
-9.27039e-05
-0.000418458
-0.000701674
-0.000451866
-0.000817382
-0.000731283
-0.00132189
-0.000408386
-0.000764263
-0.000798503
-0.000291997
-9.3709e-05
0.000219655
0.000309005
0.000642722
0.00124822
0.00117911
0.000584281
-0.000158667
-0.000894501
-0.000109907
-0.00044313
-0.000697245
-0.000470567
-0.00083652
-0.000713704
-0.00133401
-0.000433477
-0.000716155
-0.000856861
-0.000298758
-0.000113472
0.000124833
0.000253515
0.000519143
0.00101525
0.000951177
0.000341118
-0.000169927
-0.000906785
-0.000129637
-0.00046622
-0.000695719
-0.000486796
-0.000858583
-0.000697041
-0.00134173
-0.000466198
-0.000663542
-0.000915204
-0.000317607
-0.000125321
1.99526e-05
0.000181747
0.00040733
0.000781167
0.000706078
0.000116614
-0.00018175
-0.000919043
-0.000152262
-0.00048756
-0.000697294
-0.000500631
-0.000882879
-0.000682591
-0.00134396
-0.000506721
-0.000610752
-0.000970963
-0.000351428
-0.000130232
-9.04349e-05
8.92621e-05
0.000305074
0.000555566
0.000443812
-0.000100226
-0.000194221
-0.000931056
-0.000178136
-0.000507083
-0.000701993
-0.000512385
-0.000908483
-0.000671646
-0.00134018
-0.000555065
-0.000559003
-0.00102151
-0.000402243
-0.000130717
-0.000200698
-2.64574e-05
0.000207531
0.000347814
0.000170146
-0.000323212
-0.000207466
-0.000942575
-0.000207548
-0.000524846
-0.000709694
-0.000522553
-0.000934361
-0.000665306
-0.00133019
-0.000610588
-0.000510642
-0.0010645
-0.000470776
-0.000130725
-0.000304898
-0.000165085
0.000107579
0.000164138
-0.000104204
-0.000563897
-0.000221642
-0.000953314
-0.000240747
-0.000541053
-0.000720111
-0.000531765
-0.000959449
-0.000664411
-0.00131433
-0.00067298
-0.000468058
-0.00109811
-0.000556711
-0.000135394
-0.000397381
-0.000322935
-3.4762e-06
4.92819e-06
-0.000366953
-0.000825491
-0.000236913
-0.000962992
-0.000277873
-0.000556126
-0.000732699
-0.00054082
-0.000982828
-0.000669328
-0.00129354
-0.000737017
-0.000433516
-0.00112082
-0.000658565
-0.000150459
-0.000473954
-0.00049413
-0.000133333
-0.000134883
-0.000606466
-0.00110122
-0.000253501
-0.000971345
-0.000318849
-0.000570715
-0.000746826
-0.000550504
-0.00100389
-0.000679983
-0.00126887
-0.000803768
-0.000409485
-0.00113168
-0.000773699
-0.00018156
-0.000532844
-0.000671378
-0.000286596
-0.000262425
-0.000814644
-0.00137722
-0.000271649
-0.000978147
-0.000363381
-0.000585697
-0.00076191
-0.000561273
-0.00102246
-0.000696186
-0.00124113
-0.000872148
-0.00039833
-0.00113055
-0.000898634
-0.000234211
-0.000574953
-0.00084581
-0.000464492
-0.000386594
-0.000988967
-0.00163754
-0.000291592
-0.000983244
-0.000410938
-0.000602124
-0.000777587
-0.000573328
-0.00103885
-0.000717647
-0.00121101
-0.00094082
-0.00040226
-0.0011181
-0.00102852
-0.00031322
-0.000604741
-0.00100717
-0.000664222
-0.000517355
-0.00113328
-0.00186792
-0.000313528
-0.000986564
-0.000460799
-0.000621023
-0.000793656
-0.00058668
-0.00105348
-0.000744193
-0.00117921
-0.00100839
-0.000423473
-0.00109658
-0.00115667
-0.000420391
-0.000629508
-0.00114706
-0.000878914
-0.000662699
-0.00125561
-0.00206089
-0.000337611
-0.000988174
-0.000512099
-0.000643211
-0.000810334
-0.000601049
-0.00106643
-0.000775835
-0.00114681
-0.00107278
-0.000463717
-0.00106987
-0.00127597
-0.000553518
-0.000657979
-0.00126167
-0.00110026
-0.000826001
-0.0013648
-0.00221976
-0.000363924
-0.000988334
-0.000563912
-0.00066925
-0.000828274
-0.000616123
-0.00107757
-0.000812831
-0.00111523
-0.00113139
-0.000523462
-0.00104352
-0.00138083
-0.000708667
-0.000698455
-0.00135023
-0.00131989
-0.00100859
-0.00146618
-0.00235068
-0.00039251
-0.000987485
-0.000615293
-0.000699378
-0.000848453
-0.000631892
-0.00108648
-0.000855595
-0.00108607
-0.00118162
-0.000602026
-0.00102444
-0.00146762
-0.000879332
-0.000757821
-0.00141424
-0.00152809
-0.00121259
-0.00156463
-0.00245462
-0.000423365
-0.000986245
-0.000665382
-0.000733287
-0.000872173
-0.000648866
-0.00109193
-0.000904214
-0.00106191
-0.00122154
-0.000697027
-0.00102003
-0.00153687
-0.00105667
-0.000840107
-0.00145854
-0.00171325
-0.00143678
-0.00167125
-0.0025286
-0.000456378
-0.000985374
-0.000713627
-0.000769859
-0.000900527
-0.000668266
-0.00109291
-0.000957734
-0.00104675
-0.00125041
-0.000802598
-0.00103556
-0.00159205
-0.00123215
-0.000945475
-0.00149165
-0.0018657
-0.00167061
-0.00180163
-0.00257753
-0.000491442
-0.000985552
-0.000759631
-0.000807822
-0.000933813
-0.000692076
-0.00108929
-0.00101427
-0.00104428
-0.00126901
-0.000910965
-0.00107194
-0.0016395
-0.00140087
-0.00107078
-0.00152286
-0.00198289
-0.00189654
-0.00196384
-0.00262012
-0.000528439
-0.000987316
-0.000803317
-0.000845128
-0.000972111
-0.000722617
-0.00108182
-0.00107043
-0.00105652
-0.0012802
-0.00101622
-0.00112841
-0.00168533
-0.00156083
-0.00121195
-0.00155834
-0.00206867
-0.00209972
-0.00214988
-0.00268166
-0.000567196
-0.000991159
-0.000844961
-0.000881837
-0.00101428
-0.000761961
-0.00107263
-0.0011217
-0.00108337
-0.00129073
-0.00111487
-0.00120079
-0.0017332
-0.00171148
-0.00136562
-0.00160166
-0.00212858
-0.00227302
-0.00234065
-0.00277718
-0.000607516
-0.000997404
-0.000885268
-0.000917354
-0.00105819
-0.000811429
-0.00106577
-0.00116517
-0.00112275
-0.00130678
-0.00120665
-0.00128337
-0.00178523
-0.00185254
-0.00152948
-0.00165636
-0.00216713
-0.00241612
-0.00252058
-0.00289811
-0.000649281
-0.00100623
-0.000925087
-0.000951561
-0.00110129
-0.000871178
-0.00106607
-0.00120077
-0.00116992
-0.00133025
-0.0012925
-0.00137365
-0.00184148
-0.0019826
-0.00170067
-0.00172757
-0.00218912
-0.00252848
-0.00268452
-0.00302281
-0.000692421
-0.00101778
-0.00096491
-0.000984832
-0.00114178
-0.000940231
-0.00107801
-0.0012293
-0.0012193
-0.0013615
-0.00137505
-0.00147044
-0.00190331
-0.00209983
-0.00187213
-0.00182111
-0.00220335
-0.00260726
-0.00283286
-0.00314056
-0.000736871
-0.00103215
-0.00100526
-0.00101815
-0.00117866
-0.00101539
-0.00110476
-0.00125494
-0.00126613
-0.00139951
-0.00145693
-0.00157141
-0.00197293
-0.00220503
-0.00203581
-0.00193494
-0.00222403
-0.00265443
-0.00296083
-0.00325529
-0.000782582
-0.00104884
-0.00104644
-0.00105313
-0.00121161
-0.00109218
-0.00114717
-0.00128473
-0.00131021
-0.00143831
-0.00153802
-0.00167767
-0.00204987
-0.00230203
-0.00218635
-0.00205854
-0.00226319
-0.00268011
-0.00305983
-0.00337182
-0.000829536
-0.00106788
-0.0010884
-0.00109143
-0.00124085
-0.00116639
-0.00120475
-0.00132468
-0.00135295
-0.0014736
-0.00161514
-0.00179013
-0.00213678
-0.00239348
-0.00232154
-0.00218218
-0.00231997
-0.00270314
-0.0031276
-0.00348301
-0.0008778
-0.0010892
-0.00113096
-0.00113406
-0.00126767
-0.00123502
-0.0012748
-0.00137871
-0.00139799
-0.00150514
-0.00168279
-0.00190351
-0.0022397
-0.00248458
-0.0024406
-0.00229812
-0.00238355
-0.00273752
-0.00317514
-0.00357478
-0.00092747
-0.00111282
-0.00117359
-0.00118166
-0.00129466
-0.00129621
-0.00135162
-0.00144823
-0.00145238
-0.00153362
-0.00173703
-0.00201211
-0.00235626
-0.00258563
-0.00254844
-0.00240051
-0.00244484
-0.00277926
-0.00322355
-0.00364275
-0.000978592
-0.0011389
-0.00121553
-0.00123432
-0.00132512
-0.00134947
-0.00142894
-0.00153229
-0.00152245
-0.00156317
-0.00177487
-0.00210881
-0.00248022
-0.00270378
-0.00265544
-0.00248968
-0.00249432
-0.00281546
-0.00328219
-0.00370184
-0.00103118
-0.00116772
-0.00125609
-0.0012915
-0.00136223
-0.00139573
-0.00150141
-0.00162762
-0.00161119
-0.00160242
-0.00179829
-0.0021834
-0.00260564
-0.00283866
-0.00277399
-0.00257564
-0.00252878
-0.00283043
-0.00333999
-0.00377417
-0.00108513
-0.00119972
-0.00129497
-0.00135199
-0.00140802
-0.00143762
-0.00156546
-0.00172781
-0.00171902
-0.00165915
-0.00181258
-0.0022293
-0.0027198
-0.00298776
-0.00291096
-0.00266989
-0.00256011
-0.00281426
-0.00337286
-0.00386227
-0.00114024
-0.00123539
-0.00133237
-0.00141377
-0.00146361
-0.00147958
-0.00161947
-0.00182499
-0.00184361
-0.00173979
-0.00182716
-0.00224834
-0.00280689
-0.00314224
-0.00307271
-0.00278154
-0.00260064
-0.00277936
-0.0033536
-0.00394376
-0.00119623
-0.00127514
-0.00136883
-0.00147444
-0.00152875
-0.00152685
-0.00166407
-0.00191209
-0.00197923
-0.0018485
-0.00185357
-0.00224478
-0.0028588
-0.00328448
-0.0032572
-0.00292164
-0.00265894
-0.00274643
-0.00328164
-0.00397731
-0.00125275
-0.00131921
-0.00140551
-0.0015318
-0.00160197
-0.00158382
-0.0017019
-0.00198454
-0.00211633
-0.00198372
-0.00190397
-0.00222703
-0.00287308
-0.00339757
-0.00345185
-0.00309961
-0.00274415
-0.00273181
-0.00318452
-0.00393265
-0.00130941
-0.00136754
-0.00144403
-0.0015847
-0.00168047
-0.00165312
-0.00173853
-0.00204031
-0.00224457
-0.00213961
-0.001988
-0.00221114
-0.00285139
-0.00347009
-0.00363699
-0.00331158
-0.00287011
-0.00274446
-0.00309071
-0.00381918
-0.00136596
-0.00141982
-0.00148613
-0.0016331
-0.00175975
-0.00173524
-0.00178119
-0.00208053
-0.00235528
-0.00230706
-0.00210825
-0.00221552
-0.00280209
-0.00349347
-0.00379225
-0.00354438
-0.00304724
-0.00279329
-0.00302116
-0.00367408
-0.00142226
-0.00147544
-0.00153326
-0.00167781
-0.00183541
-0.00182833
-0.00183609
-0.00210895
-0.00244241
-0.00247321
-0.00226038
-0.00225336
-0.00274388
-0.00346911
-0.00389951
-0.00377504
-0.00327366
-0.002892
-0.00298423
-0.00353133
-0.00147837
-0.0015335
-0.00158614
-0.00172071
-0.00190425
-0.00192884
-0.00190713
-0.00213359
-0.00250432
-0.00262472
-0.00243641
-0.0023326
-0.00269779
-0.00340698
-0.00394746
-0.00397439
-0.00353476
-0.0030538
-0.00298974
-0.00341235
-0.00153453
-0.00159296
-0.00164459
-0.00176453
-0.00196504
-0.00203095
-0.00199508
-0.00216408
-0.00254384
-0.00275114
-0.00262244
-0.0024547
-0.00268037
-0.00332472
-0.00394059
-0.00411793
-0.00379833
-0.00327816
-0.00305407
-0.00332901
-0.00159105
-0.00165284
-0.00170774
-0.00181202
-0.00201851
-0.00212814
-0.00209707
-0.00220839
-0.00256688
-0.00284703
-0.00280049
-0.00261198
-0.00270584
-0.00324274
-0.00388887
-0.00419653
-0.0040255
-0.00354542
-0.00319204
-0.00329731
-0.00164826
-0.00171248
-0.00177431
-0.00186505
-0.00206649
-0.00221554
-0.00220813
-0.00227144
-0.00258386
-0.00291282
-0.0029565
-0.00279018
-0.00278111
-0.00318209
-0.00380651
-0.00421662
-0.00419243
-0.00381337
-0.00339803
-0.00333677
-0.00170646
-0.00177157
-0.00184247
-0.00192417
-0.00211203
-0.00229136
-0.0023208
-0.00235341
-0.00260637
-0.00295289
-0.00308236
-0.0029693
-0.00289889
-0.00316261
-0.00371367
-0.00418641
-0.00429401
-0.00404258
-0.00364492
-0.00345544
-0.0017657
-0.0018301
-0.00191034
-0.00198865
-0.00215871
-0.00235629
-0.00242737
-0.00244994
-0.00264309
-0.00297579
-0.00317519
-0.00313288
-0.00304464
-0.00319311
-0.00363549
-0.0041198
-0.00433653
-0.00421414
-0.00388998
-0.0036381
-0.00182582
-0.00188821
-0.00197649
-0.00205687
-0.00220918
-0.00241254
-0.00252272
-0.00255454
-0.00269774
-0.00299412
-0.0032381
-0.00327075
-0.00319917
-0.00326675
-0.00359333
-0.00403924
-0.00432896
-0.00432551
-0.00410088
-0.0038523
-0.00188642
-0.00194606
-0.00204015
-0.00212676
-0.00226443
-0.00246333
-0.00260502
-0.00265923
-0.00276858
-0.00301872
-0.0032781
-0.00337776
-0.00334566
-0.00336995
-0.00359536
-0.00397006
-0.00428814
-0.00438334
-0.00426252
-0.00406139
-0.00194691
-0.00200366
-0.00210111
-0.00219604
-0.00232382
-0.00251221
-0.00267521
-0.00275704
-0.00285013
-0.00305538
-0.00330629
-0.00345536
-0.00347308
-0.00348618
-0.00363558
-0.00393027
-0.00423669
-0.00439847
-0.00437261
-0.00423999
-0.00200658
-0.00206079
-0.00215942
-0.00226282
-0.00238573
-0.00256164
-0.00273564
-0.00284402
-0.00293583
-0.00310473
-0.00333334
-0.00350996
-0.00357569
-0.00360048
-0.00370244
-0.00392519
-0.00419494
-0.00438821
-0.00443805
-0.00437696
-0.00206463
-0.00211697
-0.00221522
-0.00232582
-0.00244806
-0.00261245
-0.002789
-0.00291913
-0.00301935
-0.00316359
-0.00336521
-0.00355008
-0.00365381
-0.00370266
-0.0037827
-0.00394974
-0.00417439
-0.00437079
-0.00447038
-0.00447226
-0.00212028
-0.00217146
-0.00226843
-0.00238431
-0.00250869
-0.00266418
-0.00283792
-0.00298318
-0.00309602
-0.00322712
-0.00340367
-0.00358411
-0.00371246
-0.0037875
-0.00386411
-0.00399437
-0.00417709
-0.00435939
-0.00448424
-0.00453376
-0.00217269
-0.00222332
-0.00231874
-0.00243795
-0.00256574
-0.00271547
-0.00288409
-0.00303796
-0.00316324
-0.00329032
-0.0034476
-0.00361732
-0.00375781
-0.0038548
-0.00393822
-0.00404864
-0.0041984
-0.00436007
-0.00449215
-0.00457195
-0.00222096
-0.0022715
-0.0023655
-0.00248648
-0.00261776
-0.0027645
-0.0029279
-0.00308545
-0.00322063
-0.00334884
-0.00349371
-0.00365161
-0.00379547
-0.00390785
-0.00400121
-0.00410357
-0.0042308
-0.00437247
-0.0045015
-0.00459715
-0.00226412
-0.00231484
-0.00240779
-0.00252942
-0.00266363
-0.00280936
-0.00296858
-0.00312699
-0.00326912
-0.0034004
-0.00353829
-0.00368623
-0.00382867
-0.00395014
-0.00405283
-0.0041539
-0.00426771
-0.00439307
-0.00451475
-0.00461661
-0.0023011
-0.00235211
-0.00244442
-0.00256613
-0.00270252
-0.00284833
-0.00300431
-0.00316211
-0.00330895
-0.00344413
-0.00357871
-0.00371893
-0.0038578
-0.00398375
-0.00409395
-0.00419706
-0.00430391
-0.00441753
-0.00453105
-0.00463375
-0.00233102
-0.00238213
-0.00247377
-0.00259503
-0.00273282
-0.00287915
-0.00303276
-0.00318893
-0.00333829
-0.00347702
-0.00361082
-0.00374594
-0.00388083
-0.00400832
-0.00412394
-0.00423034
-0.004334
-0.00443905
-0.00454401
-0.00464353
-0.0023537
-0.00240689
-0.00249999
-0.00262202
-0.00276139
-0.00290922
-0.00306238
-0.00321746
-0.00336771
-0.00350892
-0.00364365
-0.00377674
-0.00390879
-0.00403574
-0.00415371
-0.00426293
-0.00436702
-0.00446926
-0.00456986
-0.00466623
0.0133502
0.00717261
-0.00130329
-0.00771966
-0.00981613
-0.00932101
-0.00845758
-0.00788546
-0.00765715
-0.00773486
-0.00796154
-0.00814024
-0.00819873
-0.00820444
-0.00820416
-0.00821999
-0.00827609
-0.00833004
-0.00838388
-0.00847955
-0.00854457
-0.00855823
-0.00863553
-0.00877012
-0.00885628
-0.00892246
-0.00904687
-0.00919481
-0.00929857
-0.00936981
-0.0094755
-0.00963453
-0.00977173
-0.009854
-0.00997053
-0.0101409
-0.0102641
-0.0103401
-0.0104503
-0.0105725
-0.0106573
-0.0107336
-0.0108238
-0.0109108
-0.0109914
-0.0110751
-0.0111615
-0.011247
-0.0113304
-0.0114168
-0.0115086
-0.0116008
-0.0116917
-0.0117882
-0.0118904
-0.0119937
-0.012097
-0.0122052
-0.0123176
-0.0124329
-0.0125503
-0.0126716
-0.0127961
-0.0129239
-0.013055
-0.0131891
-0.0133274
-0.0134681
-0.0136138
-0.0137612
-0.0139141
-0.0140686
-0.0142284
-0.0143906
-0.014557
-0.0147278
-0.0149005
-0.0150799
-0.0152592
-0.0154463
-0.0156333
-0.0158267
-0.016023
-0.0162213
-0.0164274
-0.0166318
-0.0168454
-0.0170592
-0.0172767
-0.0175033
-0.0177231
-0.01796
-0.0181887
-0.0184232
-0.0186726
-0.018896
-0.0191468
-0.0193932
-0.019581
-0.0197923
0.012525
0.0070213
-0.00121488
-0.0075782
-0.00973012
-0.00927919
-0.00843166
-0.00786714
-0.00764322
-0.0077238
-0.00795277
-0.00813332
-0.0081931
-0.0081997
-0.00820004
-0.0082162
-0.00827267
-0.00832692
-0.00838093
-0.00847689
-0.00854221
-0.00855591
-0.00863331
-0.00876819
-0.00885452
-0.00892072
-0.00904525
-0.00919339
-0.0092973
-0.00936859
-0.00947431
-0.00963347
-0.00977085
-0.00985316
-0.00996969
-0.0101402
-0.0102635
-0.0103396
-0.0104498
-0.0105721
-0.0106569
-0.0107333
-0.0108236
-0.0109106
-0.0109912
-0.0110749
-0.0111614
-0.0112469
-0.0113303
-0.0114167
-0.0115085
-0.0116008
-0.0116917
-0.0117881
-0.0118904
-0.0119936
-0.0120969
-0.0122052
-0.0123175
-0.0124329
-0.0125503
-0.0126716
-0.0127961
-0.0129238
-0.013055
-0.0131891
-0.0133274
-0.0134681
-0.0136138
-0.0137612
-0.0139141
-0.0140686
-0.0142284
-0.0143906
-0.014557
-0.0147278
-0.0149005
-0.0150799
-0.0152592
-0.0154463
-0.0156333
-0.0158267
-0.016023
-0.0162213
-0.0164274
-0.0166318
-0.0168454
-0.0170593
-0.0172767
-0.0175033
-0.0177231
-0.01796
-0.0181887
-0.0184232
-0.0186726
-0.018896
-0.0191468
-0.0193932
-0.019581
-0.0197923
0.0117724
0.00688952
-0.00102357
-0.00730922
-0.00958173
-0.00922428
-0.00840498
-0.00784731
-0.0076274
-0.00771097
-0.00794191
-0.00812405
-0.00818548
-0.00819375
-0.00819542
-0.00821238
-0.00826939
-0.00832399
-0.00837818
-0.00847446
-0.00854003
-0.00855372
-0.00863125
-0.00876643
-0.00885289
-0.0089191
-0.00904376
-0.00919209
-0.00929611
-0.00936744
-0.0094732
-0.0096325
-0.00977002
-0.00985234
-0.00996889
-0.0101395
-0.010263
-0.010339
-0.0104493
-0.0105717
-0.0106566
-0.010733
-0.0108233
-0.0109103
-0.010991
-0.0110748
-0.0111613
-0.0112468
-0.0113302
-0.0114167
-0.0115084
-0.0116007
-0.0116916
-0.0117881
-0.0118903
-0.0119936
-0.0120969
-0.0122051
-0.0123175
-0.0124329
-0.0125503
-0.0126716
-0.0127961
-0.0129238
-0.013055
-0.013189
-0.0133274
-0.0134681
-0.0136138
-0.0137612
-0.0139141
-0.0140686
-0.0142284
-0.0143906
-0.014557
-0.0147278
-0.0149005
-0.0150799
-0.0152592
-0.0154463
-0.0156333
-0.0158267
-0.016023
-0.0162213
-0.0164274
-0.0166318
-0.0168454
-0.0170593
-0.0172767
-0.0175033
-0.0177231
-0.01796
-0.0181887
-0.0184232
-0.0186726
-0.018896
-0.0191468
-0.0193932
-0.019581
-0.0197923
0.0110675
0.00675784
-0.000786021
-0.00697252
-0.0093802
-0.00914771
-0.00836682
-0.00781817
-0.00760478
-0.00769344
-0.00792679
-0.00811021
-0.00817343
-0.00818419
-0.00818822
-0.00820684
-0.00826494
-0.00832023
-0.00837484
-0.00847153
-0.00853743
-0.0085512
-0.00862885
-0.00876431
-0.00885097
-0.00891727
-0.00904202
-0.00919049
-0.00929464
-0.00936608
-0.00947189
-0.00963129
-0.00976894
-0.0098513
-0.00996792
-0.0101387
-0.0102622
-0.0103383
-0.0104487
-0.0105712
-0.0106561
-0.0107325
-0.0108229
-0.01091
-0.0109908
-0.0110745
-0.0111611
-0.0112466
-0.0113301
-0.0114165
-0.0115083
-0.0116006
-0.0116915
-0.011788
-0.0118903
-0.0119936
-0.0120969
-0.0122051
-0.0123175
-0.0124329
-0.0125503
-0.0126716
-0.0127961
-0.0129238
-0.013055
-0.013189
-0.0133274
-0.0134681
-0.0136138
-0.0137612
-0.0139141
-0.0140686
-0.0142284
-0.0143906
-0.014557
-0.0147278
-0.0149005
-0.0150799
-0.0152592
-0.0154463
-0.0156333
-0.0158267
-0.016023
-0.0162213
-0.0164274
-0.0166318
-0.0168454
-0.0170593
-0.0172767
-0.0175033
-0.0177231
-0.01796
-0.0181887
-0.0184232
-0.0186726
-0.018896
-0.0191468
-0.0193932
-0.0195811
-0.0197923
0.0103701
0.00659793
-0.00054604
-0.00661937
-0.00915938
-0.00906131
-0.00832273
-0.00778209
-0.00757555
-0.00767048
-0.00790644
-0.00809071
-0.00815584
-0.00816995
-0.00817742
-0.00819854
-0.00825827
-0.00831477
-0.00837019
-0.00846749
-0.008534
-0.00854816
-0.00862584
-0.0087614
-0.00884845
-0.00891508
-0.00903981
-0.00918822
-0.00929261
-0.00936434
-0.00947018
-0.00962953
-0.0097673
-0.00984986
-0.00996658
-0.0101374
-0.010261
-0.0103371
-0.0104477
-0.0105703
-0.0106553
-0.0107318
-0.0108224
-0.0109095
-0.0109903
-0.0110741
-0.0111607
-0.0112463
-0.0113299
-0.0114163
-0.0115081
-0.0116005
-0.0116914
-0.0117879
-0.0118902
-0.0119935
-0.0120968
-0.0122051
-0.0123175
-0.0124328
-0.0125503
-0.0126716
-0.0127961
-0.0129238
-0.013055
-0.013189
-0.0133274
-0.0134681
-0.0136138
-0.0137612
-0.0139141
-0.0140686
-0.0142284
-0.0143906
-0.014557
-0.0147278
-0.0149005
-0.0150799
-0.0152592
-0.0154463
-0.0156334
-0.0158267
-0.016023
-0.0162213
-0.0164274
-0.0166318
-0.0168454
-0.0170593
-0.0172767
-0.0175033
-0.0177231
-0.01796
-0.0181887
-0.0184232
-0.0186726
-0.018896
-0.0191468
-0.0193933
-0.0195811
-0.0197924
0.00967541
0.00640239
-0.000316564
-0.00626273
-0.00892843
-0.0089704
-0.0082778
-0.00774354
-0.0075425
-0.0076437
-0.00788215
-0.00806693
-0.00813402
-0.00815199
-0.00816357
-0.00818755
-0.00824909
-0.00830715
-0.00836376
-0.00846185
-0.00852941
-0.00854449
-0.00862214
-0.0087575
-0.00884517
-0.00891246
-0.009037
-0.00918505
-0.00928983
-0.00936218
-0.00946799
-0.00962697
-0.00976484
-0.00984784
-0.00996472
-0.0101355
-0.0102591
-0.0103354
-0.0104461
-0.0105689
-0.010654
-0.0107307
-0.0108214
-0.0109086
-0.0109895
-0.0110735
-0.0111602
-0.0112458
-0.0113294
-0.011416
-0.0115078
-0.0116002
-0.0116912
-0.0117877
-0.01189
-0.0119933
-0.0120967
-0.012205
-0.0123174
-0.0124328
-0.0125502
-0.0126715
-0.0127961
-0.0129238
-0.013055
-0.013189
-0.0133274
-0.0134681
-0.0136138
-0.0137612
-0.0139141
-0.0140686
-0.0142284
-0.0143906
-0.014557
-0.0147278
-0.0149004
-0.0150799
-0.0152592
-0.0154463
-0.0156334
-0.0158267
-0.016023
-0.0162213
-0.0164274
-0.0166318
-0.0168454
-0.0170593
-0.0172767
-0.0175033
-0.0177231
-0.01796
-0.0181887
-0.0184232
-0.0186726
-0.018896
-0.0191468
-0.0193933
-0.0195812
-0.0197924
0.00898691
0.00617119
-0.000100653
-0.00590318
-0.00868636
-0.00887416
-0.00823283
-0.00770413
-0.00750682
-0.00761403
-0.0078552
-0.00804058
-0.0081098
-0.00813198
-0.00814798
-0.00817485
-0.00823793
-0.00829753
-0.00835549
-0.00845449
-0.00852355
-0.00854012
-0.00861773
-0.00875264
-0.00884113
-0.0089094
-0.00903353
-0.00918088
-0.00928623
-0.00935962
-0.00946535
-0.00962352
-0.00976142
-0.00984516
-0.00996223
-0.0101326
-0.0102563
-0.010333
-0.0104439
-0.0105667
-0.0106521
-0.0107291
-0.01082
-0.0109073
-0.0109883
-0.0110724
-0.0111592
-0.011245
-0.0113288
-0.0114154
-0.0115073
-0.0115997
-0.0116908
-0.0117874
-0.0118898
-0.0119931
-0.0120965
-0.0122048
-0.0123172
-0.0124327
-0.0125501
-0.0126714
-0.012796
-0.0129238
-0.0130549
-0.013189
-0.0133274
-0.0134681
-0.0136138
-0.0137612
-0.0139141
-0.0140686
-0.0142284
-0.0143906
-0.014557
-0.0147278
-0.0149004
-0.0150799
-0.0152592
-0.0154463
-0.0156334
-0.0158267
-0.016023
-0.0162213
-0.0164274
-0.0166318
-0.0168454
-0.0170593
-0.0172767
-0.0175033
-0.0177231
-0.01796
-0.0181887
-0.0184232
-0.0186726
-0.018896
-0.0191468
-0.0193934
-0.0195814
-0.0197925
0.00831044
0.00590672
9.97551e-05
-0.0055401
-0.00843104
-0.00877068
-0.00818757
-0.00766449
-0.00746899
-0.00758183
-0.00782621
-0.00801257
-0.00808414
-0.00811077
-0.00813141
-0.00816115
-0.00822553
-0.00828649
-0.00834577
-0.0084457
-0.00851652
-0.00853501
-0.00861265
-0.00874698
-0.0088365
-0.00890594
-0.00902943
-0.00917575
-0.00928181
-0.00935666
-0.00946231
-0.00961928
-0.00975709
-0.00984182
-0.0099591
-0.0101289
-0.0102526
-0.0103298
-0.0104409
-0.0105637
-0.0106493
-0.0107268
-0.0108179
-0.0109054
-0.0109866
-0.0110709
-0.0111579
-0.0112439
-0.0113278
-0.0114145
-0.0115065
-0.0115991
-0.0116902
-0.011787
-0.0118894
-0.0119927
-0.0120962
-0.0122045
-0.012317
-0.0124325
-0.01255
-0.0126713
-0.0127959
-0.0129237
-0.0130549
-0.0131889
-0.0133274
-0.013468
-0.0136138
-0.0137612
-0.0139141
-0.0140685
-0.0142284
-0.0143906
-0.014557
-0.0147278
-0.0149004
-0.0150799
-0.0152592
-0.0154463
-0.0156334
-0.0158267
-0.016023
-0.0162213
-0.0164274
-0.0166318
-0.0168454
-0.0170593
-0.0172767
-0.0175033
-0.0177231
-0.01796
-0.0181887
-0.0184232
-0.0186726
-0.018896
-0.0191468
-0.0193934
-0.0195816
-0.0197927
0.00765238
0.00561225
0.000281559
-0.00517481
-0.00816168
-0.00865862
-0.00814192
-0.00762545
-0.00742962
-0.00754732
-0.00779538
-0.00798322
-0.00805737
-0.0080886
-0.00811404
-0.00814669
-0.00821227
-0.00827449
-0.00833507
-0.0084359
-0.00850858
-0.00852921
-0.00860699
-0.00874076
-0.00883142
-0.00890215
-0.0090248
-0.00916983
-0.00927669
-0.00935333
-0.00945897
-0.00961445
-0.00975205
-0.00983797
-0.00995541
-0.0101243
-0.0102479
-0.0103259
-0.0104372
-0.0105598
-0.0106459
-0.0107239
-0.0108153
-0.010903
-0.0109844
-0.0110689
-0.0111562
-0.0112424
-0.0113265
-0.0114134
-0.0115054
-0.0115981
-0.0116895
-0.0117863
-0.0118888
-0.0119922
-0.0120957
-0.0122042
-0.0123167
-0.0124322
-0.0125497