/*--------------------------------*- C++ -*----------------------------------*\
| =========                 |                                                 |
| \\      /  F ield         | OpenFOAM: The Open Source CFD Toolbox           |
|  \\    /   O peration     | Version:  2106                                  |
|   \\  /    A nd           | Website:  www.openfoam.com                      |
|    \\/     M anipulation  |                                                 |
\*---------------------------------------------------------------------------*/
FoamFile
{
    version     2.0;
    format      ascii;
    arch        "LSB;label=32;scalar=64";
    class       volVectorField;
    location    "0.305";
    object      U;
}
// * * * * * * * * * * * * * * * * * * * * * * * * * * * * * * * * * * * * * //

dimensions      [0 1 -1 0 0 0 0];

internalField   nonuniform List<vector> 
9600
(
(0.874405 0.00102259 0)
(1.11239 -0.00360333 0)
(0.892225 0.00571221 0)
(1.10551 -0.00821992 0)
(0.856581 0.00764324 0)
(1.18582 -0.00135195 0)
(0.766113 -0.00269479 0)
(1.15515 0.00786515 0)
(0.856528 -0.00335157 0)
(1.11998 -0.000252967 0)
(0.895689 -0.00576412 0)
(1.11314 0.00826649 0)
(0.87466 0.00142802 0)
(1.10335 0.00698016 0)
(0.870697 0.000822671 0)
(1.1073 0.00386595 0)
(0.872325 -0.000966497 0)
(1.11633 0.00118969 0)
(0.867393 -0.000772511 0)
(1.12299 0.000554865 0)
(0.883162 0.00104214 0)
(1.10218 -0.00357517 0)
(0.899739 0.00560429 0)
(1.09325 -0.00770757 0)
(0.864996 0.00670611 0)
(1.16739 -6.87176e-05 0)
(0.787475 -0.00263715 0)
(1.13396 0.00711431 0)
(0.883424 -0.00312874 0)
(1.10056 -0.000667033 0)
(0.920152 -0.00588619 0)
(1.09145 0.00872633 0)
(0.912257 0.0015111 0)
(1.06899 0.00713784 0)
(0.923707 0.000627288 0)
(1.05453 0.00377494 0)
(0.946142 -0.00111852 0)
(1.03688 0.000913745 0)
(0.970393 -0.000120615 0)
(1.00603 0.000690814 0)
(0.899892 0.00108151 0)
(1.08403 -0.00355908 0)
(0.914645 0.00553622 0)
(1.07433 -0.00727715 0)
(0.883297 0.00580608 0)
(1.13655 0.000827786 0)
(0.829494 -0.00253296 0)
(1.09453 0.00618859 0)
(0.922834 -0.00291963 0)
(1.06777 -0.00101161 0)
(0.953755 -0.00579256 0)
(1.05582 0.00894017 0)
(0.955438 0.00194783 0)
(1.02737 0.00689018 0)
(0.967646 0.00109573 0)
(1.01168 0.00321024 0)
(0.984022 -0.000505701 0)
(0.99933 9.6187e-05 0)
(0.993144 0.00103898 0)
(0.98928 0.000881638 0)
(0.921805 0.00114079 0)
(1.06161 -0.00355329 0)
(0.934214 0.00550183 0)
(1.05294 -0.00693205 0)
(0.908648 0.00517065 0)
(1.09994 0.00138456 0)
(0.880731 -0.00220007 0)
(1.05087 0.00529286 0)
(0.959221 -0.00274596 0)
(1.03628 -0.0013384 0)
(0.979097 -0.00558593 0)
(1.02445 0.00886557 0)
(0.980609 0.00245428 0)
(1.00172 0.00662047 0)
(0.984041 0.00142009 0)
(0.994589 0.00284456 0)
(0.990369 -0.000242786 0)
(0.990705 -0.000125547 0)
(0.99032 0.00141759 0)
(0.988951 0.00152936 0)
(0.944941 0.00121546 0)
(1.03948 -0.00355412 0)
(0.954458 0.00547867 0)
(1.03318 -0.00665126 0)
(0.935542 0.00471731 0)
(1.06512 0.00165142 0)
(0.92705 -0.00171381 0)
(1.01742 0.00451207 0)
(0.983372 -0.00268211 0)
(1.01564 -0.00155678 0)
(0.991462 -0.00536278 0)
(1.00557 0.00876611 0)
(0.990339 0.0028901 0)
(0.992114 0.00646778 0)
(0.98791 0.0016507 0)
(0.990595 0.00260112 0)
(0.990289 -1.46981e-05 0)
(0.989074 -0.000321736 0)
(0.988249 0.00176272 0)
(0.987646 0.00198654 0)
(0.965502 0.0012937 0)
(1.02151 -0.00355612 0)
(0.971832 0.00545786 0)
(1.01804 -0.00644286 0)
(0.958688 0.00441056 0)
(1.03783 0.00171447 0)
(0.960467 -0.00121922 0)
(0.999701 0.00393516 0)
(0.995443 -0.00272261 0)
(1.00554 -0.00165803 0)
(0.995329 -0.00512728 0)
(0.997039 0.00870338 0)
(0.993841 0.0032136 0)
(0.991074 0.00637804 0)
(0.990197 0.00184426 0)
(0.991336 0.00239157 0)
(0.991247 0.000199298 0)
(0.989645 -0.000439817 0)
(0.98845 0.00207379 0)
(0.987519 0.00245621 0)
(0.981096 0.00136157 0)
(1.0095 -0.0035521 0)
(0.984476 0.00543201 0)
(1.00847 -0.00629516 0)
(0.975313 0.00422864 0)
(1.01987 0.00166678 0)
(0.980569 -0.000818795 0)
(0.994231 0.00356763 0)
(1.00011 -0.00279591 0)
(1.00137 -0.00168558 0)
(0.995672 -0.00488336 0)
(0.994247 0.00860676 0)
(0.995858 0.00343568 0)
(0.993199 0.00626956 0)
(0.993124 0.00203321 0)
(0.993717 0.00220618 0)
(0.993109 0.000417575 0)
(0.991213 -0.000483799 0)
(0.989574 0.00233711 0)
(0.98842 0.00297074 0)
(0.991225 0.00140977 0)
(1.00294 -0.00353828 0)
(0.992384 0.00539741 0)
(1.00355 -0.00618416 0)
(0.985471 0.00413032 0)
(1.00976 0.00157595 0)
(0.990971 -0.000536108 0)
(0.994679 0.00334896 0)
(1.00156 -0.00284348 0)
(0.999557 -0.00167264 0)
(0.994975 -0.00464619 0)
(0.993829 0.00844101 0)
(0.997386 0.00358858 0)
(0.995695 0.00611509 0)
(0.995916 0.00222722 0)
(0.996199 0.00204809 0)
(0.994992 0.00064984 0)
(0.992809 -0.000447777 0)
(0.990853 0.00256131 0)
(0.989526 0.00352156 0)
(0.996864 0.00143674 0)
(1.00009 -0.00351548 0)
(0.99669 0.0053546 0)
(1.00154 -0.00609025 0)
(0.990844 0.00407926 0)
(1.00476 0.00147581 0)
(0.995717 -0.000349597 0)
(0.996566 0.00321013 0)
(1.00201 -0.00284366 0)
(0.998571 -0.00163614 0)
(0.994123 -0.00442094 0)
(0.993961 0.00821375 0)
(0.998315 0.00369996 0)
(0.997436 0.00592133 0)
(0.99787 0.00242252 0)
(0.998046 0.00191875 0)
(0.996437 0.000893155 0)
(0.994026 -0.000323831 0)
(0.991938 0.00274388 0)
(0.990519 0.00409172 0)
(0.999557 0.00144694 0)
(0.999134 -0.00348652 0)
(0.998759 0.00530545 0)
(1.00094 -0.00600105 0)
(0.993373 0.00405325 0)
(1.00255 0.00137751 0)
(0.997654 -0.000225811 0)
(0.998077 0.0031068 0)
(1.00221 -0.00280236 0)
(0.997994 -0.00158158 0)
(0.993444 -0.00420044 0)
(0.993976 0.00794203 0)
(0.998629 0.0037895 0)
(0.998296 0.00569828 0)
(0.998917 0.00261558 0)
(0.99915 0.00181683 0)
(0.99737 0.00112213 0)
(0.99486 -0.000119458 0)
(0.992771 0.00288327 0)
(0.991366 0.0046571 0)
(1.00067 0.00144674 0)
(0.99891 -0.00345377 0)
(0.999649 0.00525113 0)
(1.00082 -0.00590988 0)
(0.9945 0.00403853 0)
(1.00163 0.00128328 0)
(0.998349 -0.00013665 0)
(0.998931 0.00301736 0)
(1.00234 -0.0027348 0)
(0.997682 -0.00151128 0)
(0.993044 -0.00397624 0)
(0.993851 0.00764518 0)
(0.998552 0.00386616 0)
(0.998569 0.00545724 0)
(0.99934 0.00279226 0)
(0.999704 0.00174142 0)
(0.997903 0.00131565 0)
(0.99541 0.000146977 0)
(0.993406 0.00298752 0)
(0.992094 0.00518666 0)
(1.00107 0.00144131 0)
(0.998879 -0.00341836 0)
(0.999993 0.00519217 0)
(1.0008 -0.00581407 0)
(0.995041 0.00402604 0)
(1.00127 0.00119475 0)
(0.998546 -6.59147e-05 0)
(0.999331 0.00293269 0)
(1.00242 -0.0026544 0)
(0.997526 -0.0014279 0)
(0.992895 -0.00374416 0)
(0.993737 0.00733707 0)
(0.998355 0.00393257 0)
(0.998586 0.00521069 0)
(0.999445 0.00294408 0)
(0.999935 0.00169021 0)
(0.998169 0.00147382 0)
(0.99576 0.000463056 0)
(0.993896 0.00307699 0)
(0.992715 0.00565223 0)
(1.00119 0.00143367 0)
(0.998879 -0.00338068 0)
(1.00011 0.00512891 0)
(1.00074 -0.00571285 0)
(0.995359 0.00401025 0)
(1.00113 0.00111362 0)
(0.998577 -6.65242e-06 0)
(0.999482 0.00285088 0)
(1.00244 -0.0025697 0)
(0.997441 -0.00133407 0)
(0.992925 -0.00350525 0)
(0.993737 0.00702362 0)
(0.998205 0.00398986 0)
(0.99855 0.00496701 0)
(0.999423 0.00307171 0)
(0.999997 0.00166587 0)
(0.998266 0.00160224 0)
(0.995963 0.000808029 0)
(0.99427 0.00317026 0)
(0.993233 0.00603444 0)
(1.00121 0.00142515 0)
(0.998889 -0.00334084 0)
(1.00013 0.00506176 0)
(1.00065 -0.0056059 0)
(0.995584 0.00398781 0)
(1.00109 0.00104095 0)
(0.998581 4.40787e-05 0)
(0.999512 0.0027732 0)
(1.00239 -0.00248538 0)
(0.997379 -0.00123154 0)
(0.993063 -0.00326624 0)
(0.993863 0.00670985 0)
(0.998149 0.00403786 0)
(0.998541 0.00473044 0)
(0.999361 0.00317592 0)
(0.999976 0.00167174 0)
(0.998264 0.00170923 0)
(0.996062 0.00115716 0)
(0.994556 0.0032816 0)
(0.993665 0.00632929 0)
(1.00118 0.00141622 0)
(0.998915 -0.00329892 0)
(1.00012 0.00499102 0)
(1.00056 -0.00549263 0)
(0.995753 0.00395659 0)
(1.00109 0.000977112 0)
(0.998609 8.68918e-05 0)
(0.999482 0.00270316 0)
(1.0023 -0.00240475 0)
(0.997322 -0.00112269 0)
(0.99326 -0.00302807 0)
(0.99408 0.006399 0)
(0.998166 0.00407577 0)
(0.99857 0.00450903 0)
(0.999292 0.00326031 0)
(0.999917 0.00170745 0)
(0.998216 0.00180933 0)
(0.996102 0.00149444 0)
(0.994787 0.00341589 0)
(0.994039 0.00654637 0)
(1.00113 0.00140695 0)
(0.998955 -0.00325489 0)
(1.00009 0.00491663 0)
(1.00049 -0.00537225 0)
(0.995881 0.00391542 0)
(1.0011 0.000922236 0)
(0.998665 0.000121277 0)
(0.999426 0.00264411 0)
(1.00218 -0.00233014 0)
(0.997271 -0.00100682 0)
(0.993483 -0.00279568 0)
(0.99434 0.00609342 0)
(0.998212 0.004102 0)
(0.998618 0.00430685 0)
(0.999224 0.00332883 0)
(0.999848 0.00176631 0)
(0.99816 0.00191187 0)
(0.996124 0.00181718 0)
(0.994996 0.0035691 0)
(0.994384 0.00670037 0)
(1.00108 0.00139726 0)
(0.999006 -0.00320871 0)
(1.00005 0.00483835 0)
(1.00044 -0.00524408 0)
(0.995986 0.00386363 0)
(1.0011 0.000877046 0)
(0.998734 0.000146149 0)
(0.999362 0.00259793 0)
(1.00206 -0.00226494 0)
(0.99723 -0.000882737 0)
(0.993711 -0.00257411 0)
(0.994604 0.00579275 0)
(0.998253 0.00411803 0)
(0.998663 0.00412026 0)
(0.999158 0.00338871 0)
(0.999779 0.00183776 0)
(0.998122 0.00202196 0)
(0.996157 0.00212828 0)
(0.995209 0.00372858 0)
(0.994726 0.00679849 0)
(1.00104 0.00138704 0)
(0.999063 -0.00316029 0)
(1.00001 0.00475579 0)
(1.00042 -0.00510742 0)
(0.996082 0.00380072 0)
(1.00108 0.000842679 0)
(0.998804 0.000159283 0)
(0.999296 0.00256681 0)
(1.00195 -0.00221041 0)
(0.997205 -0.000751952 0)
(0.993935 -0.00235873 0)
(0.994854 0.00549686 0)
(0.998268 0.00412818 0)
(0.998691 0.00394355 0)
(0.99909 0.00344837 0)
(0.999717 0.00191436 0)
(0.99811 0.00213937 0)
(0.996213 0.00243046 0)
(0.995437 0.00388062 0)
(0.995077 0.00684005 0)
(1.001 0.00137615 0)
(0.999122 -0.00310938 0)
(0.99996 0.00466841 0)
(1.00041 -0.00496173 0)
(0.99618 0.00372674 0)
(1.00104 0.000819885 0)
(0.998867 0.000159205 0)
(0.999231 0.00255204 0)
(1.00186 -0.00216634 0)
(0.997195 -0.000614399 0)
(0.994153 -0.00214965 0)
(0.995086 0.00520468 0)
(0.998254 0.00413553 0)
(0.9987 0.00377147 0)
(0.999021 0.00351004 0)
(0.99966 0.00199798 0)
(0.998126 0.00225478 0)
(0.996292 0.0027305 0)
(0.995677 0.00402794 0)
(0.995442 0.00683101 0)
(1.00096 0.00136441 0)
(0.999182 -0.00305581 0)
(0.999916 0.00457592 0)
(1.0004 -0.00480666 0)
(0.996285 0.00364107 0)
(1.00098 0.000811128 0)
(0.998924 0.000143241 0)
(0.999168 0.00255497 0)
(1.00178 -0.00213296 0)
(0.9972 -0.000473122 0)
(0.994363 -0.00194413 0)
(0.995308 0.00491408 0)
(0.998219 0.00414575 0)
(0.998693 0.00359733 0)
(0.998952 0.00357329 0)
(0.999605 0.00209633 0)
(0.998165 0.00235495 0)
(0.99639 0.00303208 0)
(0.995921 0.00418564 0)
(0.995818 0.00678446 0)
(1.00093 0.00135177 0)
(0.999242 -0.00299955 0)
(0.999876 0.004478 0)
(1.0004 -0.00464134 0)
(0.996396 0.00354239 0)
(1.00091 0.000818478 0)
(0.998979 0.000109856 0)
(0.999106 0.00257379 0)
(1.00171 -0.00210732 0)
(0.997214 -0.000331047 0)
(0.994567 -0.0017325 0)
(0.995526 0.00462136 0)
(0.998173 0.00416603 0)
(0.998677 0.00341835 0)
(0.998889 0.00363415 0)
(0.999549 0.00221698 0)
(0.998224 0.00242753 0)
(0.996505 0.00332124 0)
(0.996162 0.00436045 0)
(0.996197 0.00670946 0)
(1.0009 0.0013382 0)
(0.999301 -0.00294046 0)
(0.999839 0.00437407 0)
(1.00039 -0.00446514 0)
(0.996511 0.00343079 0)
(1.00085 0.000841615 0)
(0.999036 6.02628e-05 0)
(0.999044 0.00260601 0)
(1.00164 -0.00208874 0)
(0.997237 -0.000190795 0)
(0.994763 -0.00151841 0)
(0.995747 0.00431784 0)
(0.998123 0.00419892 0)
(0.998657 0.00323938 0)
(0.998836 0.00367959 0)
(0.999491 0.00236572 0)
(0.998298 0.00247595 0)
(0.996637 0.00357954 0)
(0.996394 0.00455341 0)
(0.996572 0.00660963 0)
(1.00086 0.00132341 0)
(0.999361 -0.00287809 0)
(0.999804 0.00426334 0)
(1.00039 -0.00427716 0)
(0.996629 0.00330451 0)
(1.00077 0.000884204 0)
(0.999096 -7.01399e-06 0)
(0.998984 0.00265219 0)
(1.00157 -0.00207311 0)
(0.997267 -5.90993e-05 0)
(0.99495 -0.00129516 0)
(0.995974 0.00399943 0)
(0.998074 0.00424226 0)
(0.998635 0.00307477 0)
(0.998798 0.00370086 0)
(0.99943 0.00255227 0)
(0.998383 0.0025187 0)
(0.996787 0.00379134 0)
(0.996612 0.00477283 0)
(0.996933 0.00650187 0)
(1.00083 0.00130737 0)
(0.999421 -0.0028121 0)
(0.999771 0.00414493 0)
(1.00038 -0.00407643 0)
(0.996749 0.00316262 0)
(1.0007 0.00094395 0)
(0.999161 -8.63338e-05 0)
(0.998925 0.00270579 0)
(1.0015 -0.0020538 0)
(0.997305 6.17745e-05 0)
(0.995125 -0.00104664 0)
(0.996207 0.00366649 0)
(0.998031 0.00428833 0)
(0.99861 0.00294026 0)
(0.998777 0.00368679 0)
(0.999368 0.00277614 0)
(0.998473 0.00257594 0)
(0.996959 0.00393888 0)
(0.996819 0.00501038 0)
(0.997271 0.00642163 0)
(1.00079 0.00129002 0)
(0.999482 -0.00274235 0)
(0.999739 0.00401822 0)
(1.00038 -0.00386215 0)
(0.996872 0.00300536 0)
(1.00062 0.00101884 0)
(0.999229 -0.000178537 0)
(0.998869 0.00276478 0)
(1.00143 -0.00202496 0)
(0.997354 0.000163243 0)
(0.995287 -0.000774553 0)
(0.996444 0.0033223 0)
(0.997999 0.00432911 0)
(0.99858 0.00284569 0)
(0.998777 0.00362647 0)
(0.999308 0.00301783 0)
(0.99856 0.00266268 0)
(0.997152 0.00401557 0)
(0.997022 0.00523024 0)
(0.997578 0.00639245 0)
(1.00076 0.00127085 0)
(0.999543 -0.00266761 0)
(0.999709 0.00388155 0)
(1.00037 -0.00363294 0)
(0.996999 0.00283256 0)
(1.00054 0.00111025 0)
(0.9993 -0.000282121 0)
(0.998815 0.00282654 0)
(1.00136 -0.00198082 0)
(0.997414 0.000228976 0)
(0.995435 -0.000479705 0)
(0.996685 0.00297653 0)
(0.997979 0.00435366 0)
(0.998542 0.00280369 0)
(0.998796 0.00352433 0)
(0.999257 0.00325685 0)
(0.998638 0.00279114 0)
(0.997364 0.00403192 0)
(0.99723 0.0053987 0)
(0.997851 0.00642217 0)
(1.00072 0.00125008 0)
(0.999604 -0.00258782 0)
(0.999681 0.00373457 0)
(1.00036 -0.0033892 0)
(0.997128 0.00264657 0)
(1.00046 0.00121273 0)
(0.999374 -0.000388948 0)
(0.998765 0.00288126 0)
(1.00129 -0.00191262 0)
(0.997489 0.000255149 0)
(0.995571 -0.000160039 0)
(0.996926 0.0026432 0)
(0.997978 0.00434736 0)
(0.998496 0.00282327 0)
(0.998832 0.00339001 0)
(0.999221 0.00347243 0)
(0.9987 0.00296742 0)
(0.997586 0.00401553 0)
(0.997454 0.00549471 0)
(0.998093 0.00649865 0)
(1.00069 0.00122694 0)
(0.999667 -0.0025016 0)
(0.999657 0.00357619 0)
(1.00035 -0.00313162 0)
(0.997261 0.00244878 0)
(1.00037 0.00132722 0)
(0.999449 -0.000497161 0)
(0.99872 0.00292113 0)
(1.00121 -0.00180992 0)
(0.997578 0.000242309 0)
(0.995694 0.000175614 0)
(0.997162 0.00233707 0)
(0.998 0.00429892 0)
(0.998442 0.00290411 0)
(0.998882 0.00324063 0)
(0.999207 0.00364627 0)
(0.998748 0.00318827 0)
(0.997808 0.00399824 0)
(0.997699 0.00551049 0)
(0.998314 0.00658334 0)
(1.00065 0.00120156 0)
(0.999729 -0.00240817 0)
(0.999636 0.0034052 0)
(1.00034 -0.00286142 0)
(0.997398 0.00224157 0)
(1.00029 0.0014484 0)
(0.999525 -0.000597877 0)
(0.99868 0.0029374 0)
(1.00113 -0.00166823 0)
(0.997683 0.000197104 0)
(0.995808 0.000512241 0)
(0.997389 0.00206943 0)
(0.998047 0.0042006 0)
(0.99838 0.00303871 0)
(0.998939 0.00310103 0)
(0.999221 0.0037641 0)
(0.998782 0.00344364 0)
(0.998018 0.00400557 0)
(0.997965 0.00545327 0)
(0.998528 0.00663605 0)
(1.00061 0.00117401 0)
(0.99979 -0.0023079 0)
(0.999621 0.00322313 0)
(1.00033 -0.00258245 0)
(0.997537 0.00203046 0)
(1.00021 0.00156717 0)
(0.999601 -0.000682966 0)
(0.998648 0.00292297 0)
(1.00104 -0.00148816 0)
(0.997804 0.000128386 0)
(0.995916 0.000838727 0)
(0.997602 0.00185369 0)
(0.998123 0.00405077 0)
(0.998316 0.0032082 0)
(0.998996 0.0029918 0)
(0.999267 0.00381477 0)
(0.998812 0.00371022 0)
(0.998204 0.00405575 0)
(0.998245 0.00534039 0)
(0.998752 0.00662056 0)
(1.00058 0.00114275 0)
(0.99985 -0.00219762 0)
(0.99961 0.00302881 0)
(1.00031 -0.00229643 0)
(0.997678 0.00181778 0)
(1.00012 0.00168185 0)
(0.999674 -0.000747953 0)
(0.998624 0.00287653 0)
(1.00094 -0.00127623 0)
(0.997939 4.26384e-05 0)
(0.99602 0.00113976 0)
(0.997797 0.00169664 0)
(0.998227 0.00385445 0)
(0.998254 0.00339223 0)
(0.999046 0.00292939 0)
(0.999345 0.0037961 0)
(0.998847 0.00395599 0)
(0.99836 0.00415543 0)
(0.998525 0.00520732 0)
(0.999 0.00651764 0)
(1.00054 0.00110942 0)
(0.999908 -0.00207965 0)
(0.999606 0.00282435 0)
(1.00029 -0.0020068 0)
(0.99782 0.00161034 0)
(1.00004 0.00178353 0)
(0.999745 -0.000786928 0)
(0.998611 0.00279569 0)
(1.00083 -0.00103893 0)
(0.998085 -4.62834e-05 0)
(0.996126 0.00140922 0)
(0.997969 0.00159966 0)
(0.998358 0.00362126 0)
(0.998202 0.00357495 0)
(0.99908 0.0029282 0)
(0.99945 0.00372017 0)
(0.998898 0.00415517 0)
(0.998485 0.00429664 0)
(0.998789 0.00509543 0)
(0.999275 0.00633903 0)
(1.0005 0.00107298 0)
(0.999963 -0.00195259 0)
(0.999608 0.00261229 0)
(1.00027 -0.00171994 0)
(0.997963 0.00141561 0)
(0.999961 0.00186544 0)
(0.99981 -0.000791097 0)
(0.99861 0.00268399 0)
(1.00072 -0.000785554 0)
(0.998241 -0.000131277 0)
(0.996235 0.00164645 0)
(0.998117 0.00156707 0)
(0.998515 0.00336409 0)
(0.998168 0.00373622 0)
(0.999093 0.00298872 0)
(0.999575 0.00361034 0)
(0.998975 0.00429341 0)
(0.998587 0.00445986 0)
(0.999023 0.00502529 0)
(0.999565 0.00611511 0)
(1.00047 0.00103335 0)
(1.00001 -0.00181578 0)
(0.999615 0.00239463 0)
(1.00025 -0.00144126 0)
(0.998105 0.00123821 0)
(0.999886 0.00192644 0)
(0.99987 -0.000764518 0)
(0.99862 0.00254882 0)
(1.0006 -0.000523526 0)
(0.998403 -0.000207517 0)
(0.996354 0.0018405 0)
(0.998238 0.0015936 0)
(0.99869 0.00309541 0)
(0.998159 0.00386199 0)
(0.999084 0.00310509 0)
(0.999709 0.00349119 0)
(0.999085 0.00436433 0)
(0.998673 0.00462436 0)
(0.999218 0.00499701 0)
(0.999856 0.00588172 0)
(1.00043 0.000991156 0)
(1.00006 -0.00167116 0)
(0.999628 0.002175 0)
(1.00023 -0.00117732 0)
(0.998245 0.00108511 0)
(0.999814 0.00196433 0)
(0.999922 -0.000712905 0)
(0.998642 0.00240136 0)
(1.00048 -0.000258535 0)
(0.998568 -0.000266861 0)
(0.996485 0.00198819 0)
(0.998331 0.00167303 0)
(0.99888 0.00282766 0)
(0.998181 0.0039368 0)
(0.999052 0.00327342 0)
(0.99984 0.00338621 0)
(0.99923 0.00436264 0)
(0.998756 0.00477245 0)
(0.99937 0.00500632 0)
(1.00012 0.00567374 0)
(1.0004 0.000946001 0)
(1.0001 -0.00151998 0)
(0.999644 0.00195716 0)
(1.00021 -0.000934383 0)
(0.998384 0.000957907 0)
(0.999746 0.00198101 0)
(0.999967 -0.000637677 0)
(0.998676 0.00225118 0)
(1.00035 3.37377e-06 0)
(0.998732 -0.000304702 0)
(0.996632 0.00209359 0)
(0.998397 0.00180252 0)
(0.999075 0.00258254 0)
(0.998244 0.00394317 0)
(0.999003 0.00347832 0)
(0.999954 0.00332467 0)
(0.999406 0.00429461 0)
(0.998849 0.00488465 0)
(0.999484 0.00504371 0)
(1.00035 0.00551713 0)
(1.00037 0.000899575 0)
(1.00014 -0.00136633 0)
(0.999665 0.00174567 0)
(1.00019 -0.000716354 0)
(0.998519 0.00085559 0)
(0.999684 0.00197996 0)
(1 -0.00054628 0)
(0.998721 0.00209767 0)
(1.00022 0.000259848 0)
(0.998891 -0.000317517 0)
(0.996798 0.00215211 0)
(0.99844 0.0019722 0)
(0.999266 0.00238364 0)
(0.99835 0.00387888 0)
(0.998949 0.00368198 0)
(1.00004 0.00331724 0)
(0.999606 0.00418168 0)
(0.998962 0.00494442 0)
(0.99957 0.00508437 0)
(1.00053 0.00540995 0)
(1.00033 0.000850964 0)
(1.00017 -0.00121129 0)
(0.999688 0.00154505 0)
(1.00018 -0.00052597 0)
(0.99865 0.000774998 0)
(0.999627 0.00196898 0)
(1.00003 -0.000446095 0)
(0.998778 0.00193967 0)
(1.00009 0.000505496 0)
(0.999041 -0.000300443 0)
(0.996985 0.0021559 0)
(0.998465 0.00216329 0)
(0.99944 0.00224276 0)
(0.998496 0.00375926 0)
(0.9989 0.00386087 0)
(1.00009 0.00335895 0)
(0.999817 0.00404703 0)
(0.9991 0.00495188 0)
(0.999641 0.00511236 0)
(1.00067 0.00531795 0)
(1.0003 0.000802656 0)
(1.00019 -0.00106019 0)
(0.999712 0.00136153 0)
(1.00016 -0.000362381 0)
(0.998778 0.000711526 0)
(0.999575 0.00195017 0)
(1.00005 -0.000337495 0)
(0.998846 0.00178278 0)
(0.999967 0.000739275 0)
(0.999177 -0.000250219 0)
(0.997192 0.00210796 0)
(0.998481 0.00235705 0)
(0.999592 0.00216645 0)
(0.998678 0.00359761 0)
(0.99887 0.00399939 0)
(1.0001 0.00344377 0)
(1.00003 0.00390404 0)
(0.999266 0.00490684 0)
(0.999699 0.00514122 0)
(1.00078 0.00521762 0)
(1.00027 0.000753485 0)
(1.00021 -0.000911878 0)
(0.999738 0.00119793 0)
(1.00015 -0.00022596 0)
(0.998901 0.000658768 0)
(0.999528 0.00192988 0)
(1.00006 -0.000218307 0)
(0.998925 0.00162257 0)
(0.999846 0.000963509 0)
(0.999294 -0.000166087 0)
(0.997419 0.0020219 0)
(0.998496 0.00253426 0)
(0.999712 0.00216343 0)
(0.998886 0.00341735 0)
(0.998869 0.00408167 0)
(1.00008 0.00356209 0)
(1.00022 0.00377046 0)
(0.999464 0.00479303 0)
(0.999752 0.00517274 0)
(1.00085 0.00512675 0)
(1.00025 0.000705334 0)
(1.00022 -0.000771649 0)
(0.999764 0.00105838 0)
(1.00013 -0.000111517 0)
(0.999022 0.000607487 0)
(0.999487 0.0019098 0)
(1.00006 -8.6643e-05 0)
(0.999015 0.00145545 0)
(0.999737 0.00116548 0)
(0.999389 -3.91312e-05 0)
(0.997661 0.00191066 0)
(0.998522 0.00266721 0)
(0.9998 0.00222349 0)
(0.999107 0.00324837 0)
(0.998904 0.0041049 0)
(1.00004 0.0036982 0)
(1.00039 0.00367506 0)
(0.999695 0.00460948 0)
(0.999815 0.00516686 0)
(1.00088 0.00508452 0)
(1.00022 0.000658718 0)
(1.00023 -0.000640432 0)
(0.999789 0.000941981 0)
(1.00012 -1.45209e-05 0)
(0.999139 0.000553026 0)
(0.999454 0.0018823 0)
(1.00004 6.03359e-05 0)
(0.999112 0.00129554 0)
(0.999643 0.00132696 0)
(0.999461 0.000138595 0)
(0.997912 0.00179884 0)
(0.998566 0.00274502 0)
(0.999861 0.00231748 0)
(0.999327 0.00311049 0)
(0.998977 0.00407061 0)
(0.999976 0.00382444 0)
(1.00051 0.00363233 0)
(0.999941 0.00439403 0)
(0.999915 0.0050762 0)
(1.00087 0.00508754 0)
(1.00019 0.000613148 0)
(1.00024 -0.000517567 0)
(0.999814 0.000844583 0)
(1.00011 6.97339e-05 0)
(0.999254 0.00049379 0)
(0.999431 0.00184309 0)
(1.00002 0.000224834 0)
(0.999212 0.00115338 0)
(0.999571 0.00144927 0)
(0.999511 0.000353003 0)
(0.998159 0.00170107 0)
(0.998631 0.00277096 0)
(0.999903 0.00241901 0)
(0.999537 0.00300819 0)
(0.999083 0.00400005 0)
(0.999914 0.00392217 0)
(1.00057 0.0036337 0)
(1.00018 0.00419652 0)
(1.00006 0.00490105 0)
(1.00085 0.00507254 0)
(1.00017 0.000569741 0)
(1.00024 -0.000404508 0)
(0.999838 0.000762637 0)
(1.0001 0.000146503 0)
(0.999366 0.000439114 0)
(0.999421 0.00178504 0)
(0.999982 0.000406998 0)
(0.999312 0.00103898 0)
(0.999523 0.00152081 0)
(0.999543 0.000584805 0)
(0.998397 0.00162975 0)
(0.998718 0.00275619 0)
(0.999933 0.0025167 0)
(0.999733 0.0029315 0)
(0.999217 0.00390887 0)
(0.999862 0.00398765 0)
(1.0006 0.00365336 0)
(1.00038 0.00403405 0)
(1.00024 0.00468276 0)
(1.00086 0.00497356 0)
(1.00015 0.000528093 0)
(1.00024 -0.000302057 0)
(0.999861 0.000695915 0)
(1.00009 0.000219797 0)
(0.999472 0.000390722 0)
(0.999425 0.00170387 0)
(0.999938 0.000595775 0)
(0.999405 0.000966726 0)
(0.999501 0.00154298 0)
(0.999563 0.000809183 0)
(0.998617 0.00160561 0)
(0.998825 0.00271256 0)
(0.999956 0.0025956 0)
(0.99991 0.00287682 0)
(0.999373 0.00379642 0)
(0.999825 0.00402544 0)
(1.00059 0.00368014 0)
(1.00055 0.0039022 0)
(1.00042 0.00447372 0)
(1.00092 0.00478753 0)
(1.00013 0.000489075 0)
(1.00024 -0.000209512 0)
(0.999884 0.000637481 0)
(1.00007 0.000296338 0)
(0.999571 0.000351372 0)
(0.999446 0.00159702 0)
(0.999892 0.000774941 0)
(0.999486 0.000942805 0)
(0.999501 0.00154198 0)
(0.999581 0.00100903 0)
(0.998818 0.00161579 0)
(0.998944 0.00265996 0)
(0.99998 0.00265546 0)
(1.00007 0.00283798 0)
(0.999547 0.00367027 0)
(0.999809 0.00403169 0)
(1.00055 0.00372052 0)
(1.00068 0.00378582 0)
(1.00059 0.00429553 0)
(1.00101 0.00457276 0)
(1.00011 0.000451155 0)
(1.00023 -0.000124005 0)
(0.999908 0.000587095 0)
(1.00006 0.000370451 0)
(0.999662 0.000330055 0)
(0.999482 0.00147037 0)
(0.99985 0.000932859 0)
(0.999554 0.000966734 0)
(0.99952 0.00152801 0)
(0.999601 0.0011789 0)
(0.999001 0.00163775 0)
(0.999074 0.00260302 0)
(1.00001 0.00270865 0)
(1.00021 0.00281185 0)
(0.999733 0.00353196 0)
(0.999821 0.00399208 0)
(1.00049 0.00377571 0)
(1.00077 0.00368931 0)
(1.00075 0.0041235 0)
(1.0011 0.00439243 0)
(1.0001 0.000415019 0)
(1.00023 -4.63275e-05 0)
(0.999931 0.000545109 0)
(1.00005 0.000439157 0)
(0.999741 0.000328536 0)
(0.999534 0.00133737 0)
(0.999818 0.00105389 0)
(0.999608 0.0010308 0)
(0.999549 0.0015187 0)
(0.999624 0.001307 0)
(0.999166 0.00167843 0)
(0.999214 0.00254105 0)
(1.00004 0.002741 0)
(1.00032 0.00281271 0)
(0.999922 0.00338998 0)
(0.999872 0.0039018 0)
(1.00042 0.0038141 0)
(1.00082 0.00363987 0)
(1.00089 0.00393766 0)
(1.00118 0.00424729 0)
(1.00008 0.000380321 0)
(1.00022 2.48069e-05 0)
(0.999955 0.000505115 0)
(1.00004 0.000501903 0)
(0.999809 0.000351934 0)
(0.999596 0.00120723 0)
(0.999802 0.00112673 0)
(0.999654 0.00111355 0)
(0.999581 0.00153398 0)
(0.999653 0.00140987 0)
(0.999318 0.00171006 0)
(0.999357 0.0024899 0)
(1.00008 0.00274527 0)
(1.00041 0.00282569 0)
(1.0001 0.00327481 0)
(0.999955 0.00377223 0)
(1.00036 0.00380569 0)
(1.00082 0.00363127 0)
(1.00102 0.00376757 0)
(1.00127 0.00408791 0)
(1.00007 0.000346768 0)
(1.00021 8.87513e-05 0)
(0.999979 0.000469977 0)
(1.00003 0.000551705 0)
(0.999864 0.000398738 0)
(0.999663 0.00108941 0)
(0.999805 0.00115619 0)
(0.999698 0.0011953 0)
(0.999617 0.00157065 0)
(0.99968 0.00151176 0)
(0.999459 0.0017262 0)
(0.999505 0.00243147 0)
(1.00014 0.00274702 0)
(1.00049 0.00282635 0)
(1.00025 0.00318883 0)
(1.00006 0.00362779 0)
(1.00033 0.00374118 0)
(1.00078 0.00362355 0)
(1.0011 0.00365022 0)
(1.00137 0.0038973 0)
(1.00006 0.000314652 0)
(1.00019 0.000147153 0)
(1 0.000439817 0)
(1.00003 0.000588018 0)
(0.999908 0.000461846 0)
(0.99973 0.000993295 0)
(0.999826 0.00115018 0)
(0.999747 0.00126308 0)
(0.999656 0.00162309 0)
(0.999704 0.00160643 0)
(0.999581 0.00175602 0)
(0.999659 0.00234746 0)
(1.00021 0.00272806 0)
(1.00057 0.00284124 0)
(1.00039 0.0031149 0)
(1.00016 0.00350056 0)
(1.00034 0.00363522 0)
(1.00075 0.0035767 0)
(1.00114 0.00358343 0)
(1.00147 0.00370978 0)
(1.00005 0.000283635 0)
(1.00018 0.000200424 0)
(1.00002 0.000416795 0)
(1.00003 0.000610269 0)
(0.999942 0.000530964 0)
(0.999791 0.00092537 0)
(0.999861 0.00112231 0)
(0.999807 0.00130334 0)
(0.999701 0.00167913 0)
(0.999725 0.00170611 0)
(0.999682 0.00179121 0)
(0.999809 0.0022687 0)
(1.00031 0.00266225 0)
(1.00064 0.00285373 0)
(1.00051 0.00306694 0)
(1.00027 0.0033806 0)
(1.00035 0.00352613 0)
(1.00074 0.00347987 0)
(1.00115 0.00352204 0)
(1.00154 0.0035788 0)
(1.00004 0.00025416 0)
(1.00016 0.000248028 0)
(1.00004 0.000401807 0)
(1.00004 0.000615935 0)
(0.99997 0.000601505 0)
(0.999844 0.000891934 0)
(0.999906 0.0010833 0)
(0.999879 0.00130871 0)
(0.999758 0.00171837 0)
(0.999743 0.00181728 0)
(0.999762 0.00183579 0)
(0.999948 0.00219671 0)
(1.00042 0.0025787 0)
(1.00073 0.00281834 0)
(1.00061 0.0030503 0)
(1.00036 0.00327851 0)
(1.00037 0.00342275 0)
(1.00073 0.00336855 0)
(1.00118 0.00341111 0)
(1.00157 0.0035006 0)
(1.00003 0.000227294 0)
(1.00015 0.000288015 0)
(1.00006 0.0003969 0)
(1.00006 0.000606582 0)
(0.999995 0.000663993 0)
(0.999887 0.000890177 0)
(0.999952 0.00104735 0)
(0.999961 0.0012861 0)
(0.999834 0.00173412 0)
(0.999764 0.00191507 0)
(0.999814 0.00190942 0)
(1.00007 0.00212981 0)
(1.00054 0.0024761 0)
(1.00083 0.00275314 0)
(1.00071 0.00301244 0)
(1.00044 0.00322026 0)
(1.00039 0.00332728 0)
(1.00072 0.00327265 0)
(1.00122 0.00325593 0)
(1.0016 0.00341181 0)
(1.00003 0.000202963 0)
(1.00013 0.000320696 0)
(1.00007 0.000401735 0)
(1.00008 0.000586297 0)
(1.00002 0.000711667 0)
(0.999921 0.000910841 0)
(0.999993 0.001026 0)
(1.00005 0.00124699 0)
(0.999929 0.00171903 0)
(0.999799 0.00199098 0)
(0.999844 0.00200216 0)
(1.00016 0.00209778 0)
(1.00067 0.00235187 0)
(1.00096 0.00266196 0)
(1.00083 0.00294743 0)
(1.00052 0.0031661 0)
(1.00039 0.00326281 0)
(1.00069 0.0032033 0)
(1.00126 0.00310038 0)
(1.00167 0.00326215 0)
(1.00002 0.000182521 0)
(1.00012 0.000342987 0)
(1.00007 0.000417299 0)
(1.0001 0.000562738 0)
(1.00005 0.000740648 0)
(0.999947 0.000942774 0)
(1.00002 0.00102337 0)
(1.00014 0.00120065 0)
(1.00004 0.0016679 0)
(0.999853 0.00203805 0)
(0.999859 0.00209465 0)
(1.00021 0.00210194 0)
(1.00078 0.00224303 0)
(1.00111 0.00252385 0)
(1.00096 0.0028665 0)
(1.00061 0.0030999 0)
(1.00041 0.00320623 0)
(1.00062 0.00317252 0)
(1.00126 0.00298775 0)
(1.00176 0.00305543 0)
(1.00002 0.000166554 0)
(1.0001 0.00035585 0)
(1.00007 0.000440044 0)
(1.00012 0.000539706 0)
(1.00009 0.000746343 0)
(0.99997 0.00097869 0)
(1.00004 0.00104579 0)
(1.00022 0.00116072 0)
(1.00017 0.0015888 0)
(0.999933 0.00204147 0)
(0.99987 0.00217934 0)
(1.00023 0.00213447 0)
(1.00086 0.00216768 0)
(1.00126 0.0023702 0)
(1.00113 0.00273244 0)
(1.00071 0.00303517 0)
(1.00044 0.00313655 0)
(1.00054 0.00315058 0)
(1.00118 0.00295161 0)
(1.00186 0.00284922 0)
(1.00001 0.000154691 0)
(1.00009 0.000358894 0)
(1.00006 0.000467033 0)
(1.00014 0.000524767 0)
(1.00013 0.000730146 0)
(0.999997 0.00100618 0)
(1.00005 0.00108628 0)
(1.00028 0.00113701 0)
(1.00031 0.00149829 0)
(1.00004 0.00199654 0)
(0.99989 0.00224073 0)
(1.00021 0.0021922 0)
(1.0009 0.00211848 0)
(1.00139 0.00223961 0)
(1.00132 0.00255236 0)
(1.00084 0.00293848 0)
(1.00048 0.00307829 0)
(1.00049 0.00309851 0)
(1.00104 0.00297165 0)
(1.00188 0.00271948 0)
(1.00001 0.000147532 0)
(1.00008 0.000353372 0)
(1.00005 0.000494015 0)
(1.00015 0.000520832 0)
(1.00018 0.000698713 0)
(1.00003 0.00101597 0)
(1.00005 0.00113452 0)
(1.00032 0.00113508 0)
(1.00044 0.0014081 0)
(1.00018 0.00190863 0)
(0.999936 0.00225662 0)
(1.00018 0.00226491 0)
(1.00089 0.0021044 0)
(1.00149 0.00213085 0)
(1.00152 0.00236997 0)
(1.00102 0.00277804 0)
(1.00054 0.00302159 0)
(1.00047 0.00303155 0)
(1.00089 0.00298082 0)
(1.00177 0.00269888 0)
(1 0.000144053 0)
(1.00008 0.000341478 0)
(1.00004 0.000516306 0)
(1.00015 0.000530263 0)
(1.00022 0.000662546 0)
(1.00007 0.00100284 0)
(1.00004 0.00118102 0)
(1.00033 0.00115913 0)
(1.00055 0.0013282 0)
(1.00034 0.00179343 0)
(1.00002 0.00221831 0)
(1.00013 0.00232407 0)
(1.00083 0.00213473 0)
(1.00154 0.0020466 0)
(1.0017 0.00220603 0)
(1.00125 0.0025748 0)
(1.00065 0.00292533 0)
(1.00046 0.00297782 0)
(1.00077 0.00294387 0)
(1.00158 0.00274158 0)
(0.999999 0.000143083 0)
(1.00008 0.000326688 0)
(1.00004 0.000530859 0)
(1.00014 0.000551956 0)
(1.00026 0.000629336 0)
(1.00013 0.000964513 0)
(1.00005 0.00121311 0)
(1.00032 0.00120354 0)
(1.00063 0.00126986 0)
(1.0005 0.00166689 0)
(1.00014 0.00213209 0)
(1.00011 0.0023459 0)
(1.00074 0.0021891 0)
(1.00153 0.00200621 0)
(1.00184 0.00206452 0)
(1.0015 0.00236204 0)
(1.00083 0.00276762 0)
(1.00048 0.00292493 0)
(1.00068 0.00288395 0)
(1.00137 0.00276797 0)
(0.999995 0.000143871 0)
(1.00007 0.000312096 0)