/*--------------------------------*- C++ -*----------------------------------*\
| =========                 |                                                 |
| \\      /  F ield         | OpenFOAM: The Open Source CFD Toolbox           |
|  \\    /   O peration     | Version:  2106                                  |
|   \\  /    A nd           | Website:  www.openfoam.com                      |
|    \\/     M anipulation  |                                                 |
\*---------------------------------------------------------------------------*/
FoamFile
{
    version     2.0;
    format      ascii;
    arch        "LSB;label=32;scalar=64";
    class       surfaceScalarField;
    location    "0.85";
    object      phi;
}
// * * * * * * * * * * * * * * * * * * * * * * * * * * * * * * * * * * * * * //

dimensions      [0 3 -1 0 0 0 0];

oriented        oriented;

internalField   nonuniform List<scalar> 
19000
(
1.17047e-06
-1.71831e-08
1.18352e-06
-2.45142e-07
1.19438e-06
6.38673e-07
1.12472e-06
2.20602e-08
1.14805e-06
-2.98865e-07
1.17489e-06
3.91773e-08
1.15528e-06
-4.56433e-07
1.14974e-06
-1.21228e-08
1.15678e-06
6.36886e-08
1.14232e-06
2.48953e-08
1.16463e-06
2.92029e-07
1.13646e-06
-2.58454e-07
1.16131e-06
1.68311e-08
1.15721e-06
1.09125e-07
1.15991e-06
-3.15231e-08
1.16331e-06
3.35699e-08
1.16869e-06
-1.59254e-08
1.16067e-06
3.62173e-08
1.15936e-06
-9.92696e-09
4.03792e-08
1.13119e-06
1.22544e-06
-1.83582e-08
1.23947e-06
-2.59179e-07
1.24675e-06
6.31401e-07
1.18202e-06
8.67903e-08
1.20304e-06
-3.19891e-07
1.23261e-06
9.61219e-09
1.21376e-06
-4.37584e-07
1.20842e-06
-6.78415e-09
1.21219e-06
5.99214e-08
1.20213e-06
3.4951e-08
1.21755e-06
2.76611e-07
1.19633e-06
-2.3723e-07
1.21116e-06
1.999e-09
1.22203e-06
9.82517e-08
1.21219e-06
-2.16775e-08
1.22996e-06
1.57912e-08
1.21781e-06
-3.76933e-09
1.23158e-06
2.2447e-08
1.20442e-06
1.7234e-08
3.02074e-08
1.21459e-06
1.28249e-06
-1.80617e-08
1.29716e-06
-2.73851e-07
1.29986e-06
6.28697e-07
1.2469e-06
1.39758e-07
1.26047e-06
-3.33467e-07
1.2924e-06
-2.23137e-08
1.27299e-06
-4.18181e-07
1.27059e-06
-4.38006e-09
1.26867e-06
6.18437e-08
1.26673e-06
3.68865e-08
1.27494e-06
2.68402e-07
1.26436e-06
-2.26649e-07
1.26699e-06
-6.32941e-10
1.28653e-06
7.87176e-08
1.27281e-06
-7.96111e-09
1.28885e-06
-2.48345e-10
1.27907e-06
6.01076e-09
1.28677e-06
1.47419e-08
1.27155e-06
3.24615e-08
3.70854e-08
1.26467e-06
1.34216e-06
-1.61151e-08
1.35685e-06
-2.88548e-07
1.35545e-06
6.30105e-07
1.31711e-06
1.78089e-07
1.32193e-06
-3.38284e-07
1.35276e-06
-5.31435e-08
1.33346e-06
-3.98882e-07
1.33242e-06
-3.3383e-09
1.32752e-06
6.67449e-08
1.33138e-06
3.30216e-08
1.33722e-06
2.62565e-07
1.33332e-06
-2.2275e-07
1.3313e-06
1.38589e-09
1.34847e-06
6.15508e-08
1.34063e-06
-1.19871e-10
1.34836e-06
-7.97631e-09
1.34492e-06
9.44202e-09
1.34754e-06
1.21275e-08
1.33885e-06
4.11521e-08
4.71811e-08
1.32875e-06
1.40533e-06
-1.3091e-08
1.41877e-06
-3.01992e-07
1.41471e-06
6.34172e-07
1.39001e-06
2.02788e-07
1.38831e-06
-3.36589e-07
1.41383e-06
-7.86637e-08
1.39626e-06
-3.81303e-07
1.39476e-06
-1.84673e-09
1.3905e-06
7.10045e-08
1.39684e-06
2.66869e-08
1.4037e-06
2.55703e-07
1.40219e-06
-2.21243e-07
1.4005e-06
3.08098e-09
1.41251e-06
4.95349e-08
1.40982e-06
2.57398e-09
1.41322e-06
-1.13718e-08
1.41136e-06
1.13016e-08
1.41297e-06
1.05181e-08
1.40645e-06
4.76715e-08
5.72306e-08
1.3964e-06
1.47263e-06
-1.00482e-08
1.48348e-06
-3.1284e-07
1.47859e-06
6.39066e-07
1.46424e-06
2.17135e-07
1.4598e-06
-3.32149e-07
1.47737e-06
-9.62398e-08
1.46225e-06
-3.66175e-07
1.46036e-06
3.87819e-11
1.45852e-06
7.28436e-08
1.46559e-06
1.96179e-08
1.47375e-06
2.47547e-07
1.47253e-06
-2.20027e-07
1.4719e-06
3.70866e-09
1.48025e-06
4.11879e-08
1.47938e-06
3.44377e-09
1.4813e-06
-1.32938e-08
1.4794e-06
1.32073e-08
1.47988e-06
1.00392e-08
1.47538e-06
5.21716e-08
6.73136e-08
1.46529e-06
1.54411e-06
-7.94472e-09
1.55156e-06
-3.20289e-07
1.54736e-06
6.43268e-07
1.53996e-06
2.24541e-07
1.5356e-06
-3.27795e-07
1.54519e-06
-1.05826e-07
1.53182e-06
-3.5281e-07
1.53075e-06
1.11449e-09
1.53126e-06
7.23319e-08
1.53863e-06
1.22464e-08
1.54699e-06
2.39182e-07
1.54523e-06
-2.1826e-07
1.54522e-06
3.71442e-09
1.55136e-06
3.50495e-08
1.55064e-06
4.16044e-09
1.55145e-06
-1.40979e-08
1.54969e-06
1.49645e-08
1.54844e-06
1.12857e-08
1.54568e-06
5.49374e-08
7.71059e-08
1.53589e-06
1.61933e-06
-7.14111e-09
1.62336e-06
-3.24324e-07
1.62075e-06
6.4588e-07
1.61786e-06
2.27426e-07
1.61454e-06
-3.24477e-07
1.61799e-06
-1.09266e-07
1.60525e-06
-3.4008e-07
1.60578e-06
5.90374e-10
1.60784e-06
7.02727e-08
1.61541e-06
4.67704e-09
1.62314e-06
2.3145e-07
1.62043e-06
-2.15551e-07
1.62077e-06
3.37607e-09
1.62533e-06
3.04928e-08
1.62443e-06
5.05794e-09
1.62382e-06
-1.34922e-08
1.62241e-06
1.63761e-08
1.6194e-06
1.4299e-08
1.61779e-06
5.6544e-08
8.62991e-08
1.6086e-06
1.69778e-06
-7.34319e-09
1.69897e-06
-3.25516e-07
1.69837e-06
6.4648e-07
1.69856e-06
2.27237e-07
1.69584e-06
-3.21756e-07
1.69556e-06
-1.08986e-07
1.68283e-06
-3.27357e-07
1.68481e-06
-1.38675e-09
1.68755e-06
6.75346e-08
1.69509e-06
-2.85997e-09
1.70199e-06
2.24548e-07
1.6982e-06
-2.11758e-07
1.69873e-06
2.83948e-09
1.70191e-06
2.73135e-08
1.70102e-06
5.95144e-09
1.69889e-06
-1.13644e-08
1.69789e-06
1.73757e-08
1.69332e-06
1.88681e-08
1.69234e-06
5.75264e-08
9.47229e-08
1.68391e-06
1.77931e-06
-7.93225e-09
1.77841e-06
-3.24613e-07
1.78003e-06
6.44855e-07
1.7824e-06
2.24869e-07
1.77936e-06
-3.18716e-07
1.77742e-06
-1.07044e-07
1.76472e-06
-3.14658e-07
1.76751e-06
-4.17784e-09
1.77022e-06
6.48224e-08
1.77736e-06
-9.99877e-09
1.78364e-06
2.18269e-07
1.77878e-06
-2.06901e-07
1.77938e-06
2.24351e-09
1.78129e-06
2.5405e-08
1.78071e-06
6.52326e-09
1.77718e-06
-7.82718e-09
1.77664e-06
1.79106e-08
1.77085e-06
2.4658e-08
1.76998e-06
5.83954e-08
1.02214e-07
1.76249e-06
1.86416e-06
-8.34402e-09
1.86179e-06
-3.22242e-07
1.86572e-06
6.40922e-07
1.86963e-06
2.20965e-07
1.8655e-06
-3.14588e-07
1.86324e-06
-1.04784e-07
1.85088e-06
-3.02302e-07
1.85389e-06
-7.18784e-09
1.85613e-06
6.25865e-08
1.86252e-06
-1.63849e-08
1.86847e-06
2.12311e-07
1.86263e-06
-2.01054e-07
1.8632e-06
1.67084e-09
1.86393e-06
2.46712e-08
1.86398e-06
6.47317e-09
1.85926e-06
-3.1056e-09
1.8592e-06
1.7969e-08
1.85263e-06
3.12284e-08
1.85136e-06
5.96697e-08
1.0855e-07
1.84502e-06
1.95275e-06
-8.2554e-09
1.94933e-06
-3.18826e-07
1.95552e-06
6.34736e-07
1.96047e-06
2.16015e-07
1.95486e-06
-3.08979e-07
1.95295e-06
-1.02873e-07
1.94124e-06
-2.90594e-07
1.94413e-06
-1.00754e-08
1.94571e-06
6.10096e-08
1.95112e-06
-2.17974e-08
1.95698e-06
2.06446e-07
1.95021e-06
-1.94277e-07
1.95079e-06
1.08325e-09
1.95043e-06
2.50335e-08
1.95131e-06
5.59428e-09
1.94567e-06
2.53054e-09
1.94599e-06
1.76519e-08
1.93915e-06
3.80688e-08
1.93701e-06
6.18145e-08
1.13494e-07
1.93206e-06
2.04551e-06
-7.57875e-09
2.04132e-06
-3.14629e-07
2.04955e-06
6.26502e-07
2.05518e-06
2.1038e-07
2.04806e-06
-3.01854e-07
2.04667e-06
-1.01487e-07
2.03576e-06
-2.7968e-07
2.0384e-06
-1.27134e-08
2.03934e-06
6.00649e-08
2.04372e-06
-2.61743e-08
2.04964e-06
2.00523e-07
2.04196e-06
-1.86592e-07
2.04271e-06
3.30937e-10
2.04131e-06
2.64349e-08
2.04309e-06
3.81263e-09
2.03684e-06
8.7859e-09
2.03728e-06
1.72051e-08
2.0307e-06
4.46511e-08
2.02739e-06
6.51244e-08
1.16939e-07
2.02395e-06
2.1428e-06
-6.37632e-09
2.13799e-06
-3.09819e-07
2.14797e-06
6.16519e-07
2.15404e-06
2.04309e-07
2.14561e-06
-2.93418e-07
2.14464e-06
-1.00519e-07
2.13451e-06
-2.69556e-07
2.13688e-06
-1.50797e-08
2.13735e-06
5.95996e-08
2.14073e-06
-2.95634e-08
2.14684e-06
1.94419e-07
2.13825e-06
-1.78001e-07
2.13936e-06
-7.8121e-10
2.13698e-06
2.88167e-08
2.13959e-06
1.19953e-09
2.13304e-06
1.53377e-08
2.13325e-06
1.69996e-08
2.12741e-06
5.04868e-08
2.12286e-06
6.96737e-08
1.18988e-07
2.12081e-06
2.24489e-06
-4.77722e-09
2.23958e-06
-3.0451e-07
2.25098e-06
6.05119e-07
2.25731e-06
1.97975e-07
2.24789e-06
-2.83994e-07
2.24711e-06
-9.97407e-08
2.23768e-06
-2.60122e-07
2.23977e-06
-1.71701e-08
2.23996e-06
5.94042e-08
2.24246e-06
-3.20563e-08
2.24887e-06
1.88009e-07
2.23938e-06
-1.68514e-07
2.24102e-06
-2.41761e-09
2.23775e-06
3.20838e-08
2.24098e-06
-2.03605e-09
2.23448e-06
2.18435e-08
2.23401e-06
1.74679e-08
2.22931e-06
5.51836e-08
2.22368e-06
7.53036e-08
1.19968e-07
2.2227e-06
2.35202e-06
-2.92078e-09
2.34629e-06
-2.98782e-07
2.3588e-06
5.92613e-07
2.36526e-06
1.91517e-07
2.35519e-06
-2.73932e-07
2.35437e-06
-9.89203e-08
2.34551e-06
-2.51255e-07
2.3473e-06
-1.89594e-08
2.34744e-06
5.9259e-08
2.34913e-06
-3.37421e-08
2.35596e-06
1.81173e-07
2.34562e-06
-1.58167e-07
2.34786e-06
-4.66072e-09
2.34386e-06
3.60781e-08
2.3474e-06
-5.57177e-09
2.34129e-06
2.79542e-08
2.33974e-06
1.90167e-08
2.33642e-06
5.85063e-08
2.33004e-06
8.16827e-08
1.20346e-07
2.32966e-06
2.4644e-06
-9.24488e-10
2.45832e-06
-2.92703e-07
2.47168e-06
5.7925e-07
2.47814e-06
1.85059e-07
2.46776e-06
-2.63547e-07
2.4667e-06
-9.7867e-08
2.4583e-06
-2.42854e-07
2.45974e-06
-2.03956e-08
2.46003e-06
5.8965e-08
2.46098e-06
-3.4688e-08
2.46833e-06
1.73818e-07
2.4572e-06
-1.47032e-07
2.46003e-06
-7.49178e-09
2.45553e-06
4.05743e-08
2.45898e-06
-9.016e-09
2.45358e-06
3.33463e-08
2.45069e-06
2.19059e-08
2.44873e-06
6.04752e-08
2.44205e-06
8.83586e-08
1.20611e-07
2.44178e-06
2.58224e-06
1.12829e-09
2.57586e-06
-2.86326e-07
2.58991e-06
5.65202e-07
2.59625e-06
1.78724e-07
2.5858e-06
-2.53095e-07
2.58437e-06
-9.64398e-08
2.57638e-06
-2.34864e-07
2.5774e-06
-2.14124e-08
2.578e-06
5.8363e-08
2.57825e-06
-3.49425e-08
2.58616e-06
1.65909e-07
2.57437e-06
-1.35236e-07
2.57766e-06
-1.07888e-08
2.57295e-06
4.5286e-08
2.57588e-06
-1.19487e-08
2.57148e-06
3.77522e-08
2.56719e-06
2.61966e-08
2.56629e-06
6.1377e-08
2.55985e-06
9.479e-08
1.21191e-07
2.55927e-06
2.70577e-06
3.18573e-09
2.69914e-06
-2.79696e-07
2.71378e-06
5.50566e-07
2.71988e-06
1.72623e-07
2.70955e-06
-2.42764e-07
2.70764e-06
-9.45338e-08
2.70006e-06
-2.27281e-07
2.70059e-06
-2.19449e-08
2.70161e-06
5.73455e-08
2.70122e-06
-3.45528e-08
2.70964e-06
1.57485e-07
2.69737e-06
-1.22963e-07
2.70092e-06
-1.43449e-08
2.69631e-06
4.98997e-08
2.69835e-06
-1.39839e-08
2.69509e-06
4.10115e-08
2.68954e-06
3.17475e-08
2.68924e-06
6.1671e-08
2.68359e-06
1.00439e-07
1.22375e-07
2.68241e-06
2.83524e-06
5.21726e-09
2.82838e-06
-2.7284e-07
2.84356e-06
5.35385e-07
2.84933e-06
1.66854e-07
2.83926e-06
-2.3269e-07
2.83679e-06
-9.2067e-08
2.82964e-06
-2.20131e-07
2.82964e-06
-2.19448e-08
2.83112e-06
5.58627e-08
2.83016e-06
-3.35868e-08
2.83898e-06
1.48665e-07
2.82647e-06
-1.10452e-07
2.83002e-06
-1.7899e-08
2.82579e-06
5.41262e-08
2.82665e-06
-1.48445e-08
2.82455e-06
4.312e-08
2.81803e-06
3.82599e-08
2.81787e-06
6.18339e-08
2.81341e-06
1.049e-07
1.24249e-07
2.81154e-06
2.97091e-06
7.20256e-09
2.96384e-06
-2.65773e-07
2.97956e-06
5.19666e-07
2.98491e-06
1.61503e-07
2.9752e-06
-2.22974e-07
2.9721e-06
-8.89707e-08
2.96542e-06
-2.13452e-07
2.96487e-06
-2.13935e-08
2.96681e-06
5.39266e-08
2.96537e-06
-3.21511e-08
2.9744e-06
1.39633e-07
2.96193e-06
-9.79779e-08
2.9652e-06
-2.11694e-08
2.9616e-06
5.77296e-08
2.96114e-06
-1.43911e-08
2.96003e-06
4.42346e-08
2.95294e-06
4.5353e-08
2.95253e-06
6.22403e-08
2.94947e-06
1.07962e-07
1.2671e-07
2.94701e-06
3.11308e-06
9.12387e-09
3.1058e-06
-2.58493e-07
3.12207e-06
5.03397e-07
3.12693e-06
1.56651e-07
3.11765e-06
-2.13702e-07
3.11387e-06
-8.51859e-08
3.10769e-06
-2.07274e-07
3.10661e-06
-2.03149e-08
3.10892e-06
5.1617e-08
3.10718e-06
-3.04083e-08
3.11618e-06
1.30629e-07
3.10403e-06
-8.58264e-08
3.10677e-06
-2.39108e-08
3.10392e-06
6.0587e-08
3.10216e-06
-1.26333e-08
3.10179e-06
4.46031e-08
3.09448e-06
5.26627e-08
3.09359e-06
6.31267e-08
3.09196e-06
1.09597e-07
1.29506e-07
3.08916e-06
3.26207e-06
1.09618e-08
3.25457e-06
-2.50989e-07
3.27141e-06
4.86556e-07
3.27569e-06
1.52373e-07
3.26694e-06
-2.04952e-07
3.26242e-06
-8.06664e-08
3.25674e-06
-2.01601e-07
3.25521e-06
-1.87844e-08
3.25775e-06
4.90807e-08
3.25592e-06
-2.85755e-08
3.26462e-06
1.21923e-07
3.25304e-06
-7.42459e-08
3.2551e-06
-2.59692e-08
3.25297e-06
6.27171e-08
3.25004e-06
-9.70629e-09
3.25015e-06
4.44955e-08
3.24292e-06
5.98906e-08
3.24143e-06
6.46225e-08
3.24112e-06
1.09905e-07
1.32293e-07
3.23833e-06
3.4182e-06
1.26936e-08
3.41045e-06
-2.43238e-07
3.42789e-06
4.69114e-07
3.43152e-06
1.48748e-07
3.42336e-06
-1.96795e-07
3.41808e-06
-7.53876e-08
3.41288e-06
-1.964e-07
3.41103e-06
-1.69342e-08
3.41358e-06
4.6529e-08
3.41192e-06
-2.69103e-08
3.42007e-06
1.13769e-07
3.40922e-06
-6.33959e-08
3.41056e-06
-2.73067e-08
3.40903e-06
6.42419e-08
3.40509e-06
-5.76654e-09
3.40549e-06
4.4099e-08
3.39856e-06
6.68219e-08
3.39638e-06
6.68028e-08
3.39723e-06
1.09056e-07
1.34699e-07
3.39482e-06
3.58181e-06
1.42924e-08
3.57378e-06
-2.35209e-07
3.59187e-06
4.51031e-07
3.59476e-06
1.45851e-07
3.58726e-06
-1.89287e-07
3.58123e-06
-6.93574e-08
3.57641e-06
-1.91588e-07
3.57443e-06
-1.49535e-08
3.57674e-06
4.42189e-08
3.57551e-06
-2.56738e-08
3.58292e-06
1.06353e-07
3.57282e-06
-5.32885e-08
3.57353e-06
-2.8026e-08
3.57241e-06
6.53615e-08
3.5676e-06
-9.4976e-10
3.56816e-06
4.35354e-08
3.56172e-06
7.32622e-08
3.55882e-06
6.97079e-08
3.56058e-06
1.07288e-07
1.36357e-07
3.55893e-06
3.75327e-06
1.57268e-08
3.74492e-06
-2.26857e-07
3.76369e-06
4.32263e-07
3.76579e-06
1.43749e-07
3.75896e-06
-1.82461e-07
3.75223e-06
-6.26231e-08
3.74767e-06
-1.87034e-07
3.7458e-06
-1.3083e-08
3.74759e-06
4.24374e-08
3.74701e-06
-2.50968e-08
3.75362e-06
9.9746e-08
3.74411e-06
-4.37793e-08
3.7444e-06
-2.8317e-08
3.74349e-06
6.62718e-08
3.73785e-06
4.68523e-09
3.7385e-06
4.28896e-08
3.73281e-06
7.89527e-08
3.72914e-06
7.33761e-08
3.73152e-06
1.04908e-07
1.36938e-07
3.73094e-06
3.93295e-06
1.69605e-08
3.92422e-06
-2.18126e-07
3.94373e-06
4.12756e-07
3.94498e-06
1.42501e-07
3.93883e-06
-1.76318e-07
3.9315e-06
-5.5285e-08
3.92701e-06
-1.82546e-07
3.92553e-06
-1.16038e-08
3.92651e-06
4.14617e-08
3.92672e-06
-2.53065e-08
3.93261e-06
9.38508e-08
3.92342e-06
-3.45871e-08
3.92347e-06
-2.83723e-08
3.92268e-06
6.70659e-08
3.91619e-06
1.1172e-08
3.91684e-06
4.22391e-08
3.91219e-06
8.36087e-08
3.9078e-06
7.77603e-08
3.91038e-06
1.02332e-07
1.36176e-07
3.91114e-06
4.12126e-06
1.79525e-08
4.11208e-06
-2.08948e-07
4.13238e-06
3.92452e-07
4.13274e-06
1.4214e-07
4.12724e-06
-1.70809e-07
4.11945e-06
-4.74984e-08
4.11478e-06
-1.77882e-07
4.114e-06
-1.08152e-08
4.11395e-06
4.15095e-08
4.11491e-06
-2.62732e-08
4.12036e-06
8.84054e-08
4.11115e-06
-2.53743e-08
4.11106e-06
-2.82829e-08
4.11044e-06
6.76881e-08
4.10305e-06
1.85599e-08
4.10358e-06
4.17054e-08
4.10019e-06
8.69964e-08
4.0953e-06
8.26511e-08
4.09757e-06
1.00061e-07
1.33964e-07
4.09979e-06
4.3186e-06
1.86585e-08
4.30889e-06
-1.99244e-07
4.33005e-06
3.71291e-07
4.32952e-06
1.42669e-07
4.32454e-06
-1.65829e-07
4.31653e-06
-3.94846e-08
4.31139e-06
-1.72741e-07
4.31158e-06
-1.10072e-08
4.3104e-06
4.26952e-08
4.31192e-06
-2.77941e-08
4.31728e-06
8.30391e-08
4.30774e-06
-1.58323e-08
4.30744e-06
-2.79757e-08
4.30715e-06
6.79768e-08
4.29893e-06
2.67744e-08
4.29914e-06
4.14982e-08
4.29716e-06
8.8979e-08
4.29211e-06
8.76955e-08
4.29363e-06
9.85416e-08
1.30456e-07
4.29714e-06
4.5254e-06
1.90306e-08
4.51509e-06
-1.88928e-07
4.53716e-06
3.49215e-07
4.53578e-06
1.44049e-07
4.53116e-06
-1.61204e-07
4.52321e-06
-3.15355e-08
4.51725e-06
-1.66784e-07
4.51866e-06
-1.2419e-08
4.51639e-06
4.49634e-08
4.51808e-06
-2.94829e-08
4.52374e-06
7.73862e-08
4.51372e-06
-5.81768e-09
4.51291e-06
-2.7165e-08
4.5132e-06
6.7685e-08
4.50438e-06
3.55935e-08
4.50401e-06
4.1871e-08
4.50341e-06
8.95757e-08
4.49864e-06
9.24672e-08
4.49918e-06
9.80019e-08
1.26123e-07
4.50351e-06
4.74213e-06
1.90199e-08
4.73111e-06
-1.77916e-07
4.75414e-06
3.26192e-07
4.75202e-06
1.46167e-07
4.74749e-06
-1.56678e-07
4.73995e-06
-2.3997e-08
4.73282e-06
-1.59655e-07
4.73561e-06
-1.52017e-08
4.73249e-06
4.80808e-08
4.73383e-06
-3.08249e-08
4.74004e-06
7.11748e-08
4.72963e-06
4.59296e-09
4.72791e-06
-2.54472e-08
4.72899e-06
6.66138e-08
4.71997e-06
4.46077e-08
4.71874e-06
4.31021e-08
4.71936e-06
8.89575e-08
4.71526e-06
9.65663e-08
4.71486e-06
9.84017e-08
1.216e-07
4.71938e-06
4.96924e-06
1.85786e-08
4.95745e-06
-1.66131e-07
4.98141e-06
3.0224e-07
4.97875e-06
1.48822e-07
4.97399e-06
-1.51912e-07
4.96725e-06
-1.72605e-08
4.95862e-06
-1.51026e-07
4.96278e-06
-1.93571e-08
4.95922e-06
5.16387e-08
4.95965e-06
-3.12616e-08
4.96651e-06
6.43207e-08
4.95598e-06
1.5122e-08
4.95295e-06
-2.2421e-08
4.95493e-06
6.46398e-08
4.94619e-06
5.33489e-08
4.94392e-06
4.53693e-08
4.94546e-06
8.74143e-08
4.9423e-06
9.97248e-08
4.94123e-06
9.94705e-08
1.17446e-07
4.94539e-06
5.20723e-06
1.76632e-08
5.19462e-06
-1.53516e-07
5.21942e-06
2.77436e-07
5.21654e-06
1.51699e-07
5.21111e-06
-1.46483e-07
5.20559e-06
-1.17403e-08
5.19519e-06
-1.40626e-07
5.20053e-06
-2.46985e-08
5.19709e-06
5.50867e-08
5.1961e-06
-3.02715e-08
5.20347e-06
5.69497e-08
5.19324e-06
2.53437e-08
5.18863e-06
-1.78074e-08
5.19146e-06
6.18092e-08
5.18349e-06
6.13247e-08
5.18015e-06
4.87103e-08
5.18226e-06
8.5302e-08
5.18018e-06
1.01803e-07
5.17876e-06
1.00892e-07
1.13939e-07
5.18226e-06
5.45661e-06
1.62386e-08
5.44315e-06
-1.40049e-07
5.46863e-06
2.51949e-07
5.46598e-06
1.54351e-07
5.45939e-06
-1.39891e-07
5.45547e-06
-7.82274e-09
5.44324e-06
-1.2839e-07
5.44925e-06
-3.07153e-08
5.44655e-06
5.77923e-08
5.4438e-06
-2.75247e-08
5.45141e-06
4.9339e-08
5.4419e-06
3.48597e-08
5.43566e-06
-1.15724e-08
5.43909e-06
5.83809e-08
5.43233e-06
6.80868e-08
5.42799e-06
5.30441e-08
5.43033e-06
8.29675e-08
5.42937e-06
1.02761e-07
5.42784e-06
1.02424e-07
1.1108e-07
5.4307e-06
5.71791e-06
1.42829e-08
5.70362e-06
-1.25754e-07
5.72953e-06
2.26033e-07
5.72766e-06
1.56223e-07
5.71939e-06
-1.31622e-07
5.71737e-06
-5.79653e-09
5.70351e-06
-1.14533e-07
5.70941e-06
-3.66126e-08
5.708e-06
5.92002e-08
5.70343e-06
-2.29512e-08
5.71088e-06
4.1891e-08
5.70249e-06
4.32447e-08
5.69488e-06
-3.96039e-09
5.69844e-06
5.48223e-08
5.69314e-06
7.33811e-08
5.68805e-06
5.81335e-08
5.69026e-06
8.07628e-08
5.69042e-06
1.02597e-07
5.68896e-06
1.03888e-07
1.08786e-07
5.69125e-06
5.99168e-06
1.17913e-08
5.97664e-06
-1.10709e-07
6.00263e-06
2.0004e-07
6.00214e-06
1.56714e-07
5.99174e-06
-1.21221e-07
5.99168e-06
-5.73098e-09
5.97673e-06
-9.95855e-08
5.98159e-06
-4.14711e-08
5.98178e-06
5.90055e-08
5.97566e-06
-1.68274e-08
5.98238e-06
3.51639e-08
5.97556e-06
5.00696e-08
5.96697e-06
4.62734e-09
5.97017e-06
5.16283e-08
5.96645e-06
7.70932e-08
5.9609e-06
6.36838e-08
5.96264e-06
7.90298e-08
5.96391e-06
1.01321e-07
5.9627e-06
1.05102e-07
1.0704e-07
5.96444e-06
6.2785e-06
8.77777e-09
6.26284e-06
-9.50441e-08
6.28848e-06
1.74399e-07
6.28991e-06
1.55284e-07
6.27713e-06
-1.08445e-07
6.27877e-06
-7.36971e-09
6.26353e-06
-8.43457e-08
6.26645e-06
-4.43895e-08
6.26832e-06
5.71383e-08
6.26109e-06
-9.60602e-09
6.26655e-06
2.97133e-08
6.26153e-06
5.50809e-08
6.25251e-06
1.36484e-08
6.25498e-06
4.91642e-08
6.25279e-06
7.9275e-08
6.24715e-06
6.9333e-08
6.24812e-06
7.80576e-08
6.25037e-06
9.90721e-08
6.24969e-06
1.05783e-07
1.05875e-07
6.25085e-06
6.57897e-06
5.27817e-09
6.56286e-06
-7.89305e-08
6.58767e-06
1.49582e-07
6.59143e-06
1.51529e-07
6.57639e-06
-9.34125e-08
6.57912e-06
-1.00994e-08
6.56449e-06
-6.97141e-08
6.56482e-06
-4.47168e-08
6.56806e-06
5.39012e-08
6.5604e-06
-1.95293e-09
6.56417e-06
2.59433e-08
6.56095e-06
5.83068e-08
6.55203e-06
2.25664e-08
6.55362e-06
4.75782e-08
6.55274e-06
8.01471e-08
6.54738e-06
7.46957e-08
6.54743e-06
7.80071e-08
6.55034e-06
9.61599e-08
6.5505e-06
1.05624e-07
1.05217e-07
6.55116e-06
6.89372e-06
1.35165e-09
6.87736e-06
-6.25687e-08
6.90087e-06
1.26071e-07
6.90721e-06
1.45186e-07
6.89036e-06
-7.65603e-08
6.89333e-06
-1.30717e-08
6.88013e-06
-5.65101e-08
6.87765e-06
-4.22396e-08
6.88163e-06
4.99213e-08
6.8744e-06
5.27723e-09
6.8764e-06
2.39417e-08
6.87444e-06
6.02701e-08
6.86608e-06
3.09237e-08
6.86678e-06
4.68783e-08
6.86696e-06
7.9967e-08
6.8622e-06
7.94513e-08
6.86135e-06
7.88561e-08
6.86448e-06
9.30361e-08
6.86569e-06
1.04411e-07
1.04816e-07
6.86609e-06
7.22341e-06
-2.91771e-09
7.207e-06
-4.61672e-08
7.22875e-06
1.04325e-07
7.23781e-06
1.36126e-07
7.21983e-06
-5.85824e-08
7.22214e-06
-1.53737e-08
7.21094e-06
-4.53117e-08
7.20595e-06
-3.72483e-08
7.20984e-06
4.60309e-08
7.20367e-06
1.14415e-08
7.20417e-06
2.34446e-08
7.20286e-06
6.15815e-08
7.19523e-06
3.85473e-08
7.19515e-06
4.69582e-08
7.19614e-06
7.89823e-08
7.19222e-06
8.33659e-08
7.19065e-06
8.04295e-08
7.19353e-06
9.01586e-08
7.1958e-06
1.02137e-07
1.04286e-07
7.19633e-06
7.56873e-06
-7.41713e-09
7.55251e-06
-2.99487e-08
7.57205e-06
8.47856e-08
7.58382e-06
1.24349e-07
7.5656e-06
-4.03565e-08
7.56636e-06
-1.61327e-08
7.55747e-06
-3.64257e-08
7.5506e-06
-3.03743e-08
7.55364e-06
4.29873e-08
7.54869e-06
1.63918e-08
7.5482e-06
2.39378e-08
7.54715e-06
6.26268e-08
7.54015e-06
4.55457e-08
7.53942e-06
4.76937e-08
7.54104e-06
7.73626e-08
7.5381e-06
8.63056e-08
7.53605e-06
8.24748e-08
7.53836e-06
8.78523e-08
7.54145e-06
9.90436e-08
1.03225e-07
7.54251e-06
7.9304e-06
-1.20036e-08
7.91472e-06
-1.42662e-08
7.93157e-06
6.7933e-08
7.94589e-06
1.10026e-07
7.92834e-06
-2.28049e-08
7.92689e-06
-1.46849e-08
7.92031e-06
-2.98451e-08
7.91239e-06
-2.24498e-08
7.91395e-06
4.14191e-08
7.91002e-06
2.03283e-08
7.90912e-06
2.48395e-08
7.90817e-06
6.35693e-08
7.90165e-06
5.20716e-08
7.90029e-06
4.90548e-08
7.90239e-06
7.5257e-08
7.90053e-06
8.81649e-08
7.89828e-06
8.47291e-08
7.89987e-06
8.62629e-08
7.90338e-06
9.55346e-08
1.0136e-07
7.90524e-06
8.30918e-06
-1.65024e-08
8.29453e-06
3.82478e-10
8.30823e-06
5.42306e-08
8.3247e-06
9.35624e-08
8.30871e-06
-6.81327e-09
8.3047e-06
-1.06807e-08
8.30005e-06
-2.51962e-08
8.29198e-06
-1.43741e-08
8.29175e-06
4.16427e-08
8.28837e-06
2.37122e-08
8.2875e-06
2.57059e-08
8.28675e-06
6.43258e-08
8.28061e-06
5.8207e-08
8.27858e-06
5.10895e-08
8.28095e-06
7.28839e-08
8.28028e-06
8.88383e-08
8.27807e-06
8.69341e-08
8.27894e-06
8.53931e-08
8.28245e-06
9.20256e-08
9.86476e-08
8.28516e-06
8.70588e-06
-2.07213e-08
8.69282e-06
1.34386e-08
8.70299e-06
4.4066e-08
8.72099e-06
7.55573e-08
8.70736e-06
6.82589e-09
8.70078e-06
-4.10756e-09
8.69739e-06
-2.18009e-08
8.69002e-06
-7.0026e-09
8.68805e-06
4.36113e-08
8.68461e-06
2.71528e-08
8.68398e-06
2.6328e-08
8.68365e-06
6.46584e-08
8.67795e-06
6.39125e-08
8.67519e-06
5.38502e-08
8.67754e-06
7.05293e-08
8.67806e-06
8.83213e-08
8.67623e-06
8.87649e-08
8.67644e-06
8.51836e-08
8.67963e-06
8.88328e-08
9.52685e-08
8.68301e-06
9.12135e-06
-2.44557e-08
9.11039e-06
2.44002e-08
9.11682e-06
3.76355e-08
9.13564e-06
5.6744e-08
9.12501e-06
1.74521e-08
9.11615e-06
4.75594e-09
9.11317e-06
-1.88204e-08
9.10714e-06
-9.79584e-10
9.10378e-06
4.69689e-08
9.09973e-06
3.12115e-08
9.09931e-06
2.67488e-08
9.09964e-06
6.43242e-08
9.09452e-06
6.90357e-08
9.09109e-06
5.72791e-08
9.09307e-06
6.8543e-08
9.09466e-06
8.67389e-08
9.09352e-06
8.99023e-08
9.09324e-06
8.54616e-08
9.0959e-06
8.61752e-08
9.15275e-08
9.09964e-06
9.55651e-06
-2.751e-08
9.54807e-06
3.28445e-08
9.55078e-06
3.49207e-08
9.56957e-06
3.79555e-08
9.5624e-06
2.46218e-08
9.55179e-06
1.53665e-08
9.54837e-06
-1.53927e-08
9.54398e-06
3.41008e-09
9.53992e-06
5.10272e-08
9.5349e-06
3.62266e-08
9.53431e-06
2.73443e-08
9.53545e-06
6.31773e-08
9.53119e-06
7.3295e-08
9.52722e-06
6.12532e-08
9.52858e-06
6.71791e-08
9.53094e-06
8.43821e-08
9.53072e-06
9.01204e-08
9.53025e-06
8.59299e-08
9.53227e-06
8.4164e-08
8.77638e-08
9.53603e-06
1.00123e-05
-2.97224e-08
1.00067e-05
3.84889e-08
1.0006e-05
3.5595e-08
1.00238e-05
2.02107e-08
1.00203e-05
2.80557e-08
1.00087e-05
2.69634e-08
1.00041e-05
-1.07557e-08
1.00013e-05
6.20449e-09
9.9973e-06
5.50351e-08
9.99133e-06
4.22035e-08
9.98998e-06
2.86944e-08
9.99194e-06
6.121e-08
9.98883e-06
7.64112e-08
9.98453e-06
6.55472e-08
9.98514e-06
6.65773e-08
9.9879e-06
8.16221e-08
9.98867e-06
8.93424e-08
9.98835e-06
8.62504e-08
9.98977e-06
8.27511e-08
8.42927e-08
9.99324e-06
1.04899e-05
-3.09993e-08
1.04871e-05
4.12766e-08
1.04838e-05
3.89439e-08
1.04992e-05
4.75596e-09
1.04996e-05
2.77012e-08
1.0488e-05
3.8556e-08
1.04816e-05
-4.34892e-09
1.048e-05
7.74871e-09
1.04768e-05
5.82699e-08
1.04701e-05
4.89325e-08
1.04676e-05
3.11799e-08
1.047e-05
5.87683e-08
1.04682e-05
7.82025e-08
1.0464e-05
6.97877e-08
1.04638e-05
6.68124e-08
1.04666e-05
7.87954e-08
1.04683e-05
8.76579e-08
1.04684e-05
8.61312e-08
1.04694e-05
8.17528e-08
8.1307e-08
1.04724e-05
1.09903e-05
-3.13195e-08
1.09902e-05
4.1404e-08
1.09852e-05
4.39375e-08
1.09971e-05
-7.14728e-09
1.1001e-05
2.38643e-08
1.09906e-05
4.89287e-08
1.09821e-05
4.09135e-09
1.09812e-05
8.74277e-09
1.09792e-05
6.02203e-08
1.09723e-05
5.58648e-08
1.09685e-05
3.49393e-08
1.09708e-05
5.65021e-08
1.09704e-05
7.85923e-08
1.09666e-05
7.35815e-08
1.09656e-05
6.78032e-08
1.09682e-05
7.61897e-08
1.09706e-05
8.52773e-08
1.09713e-05
8.53937e-08
1.09722e-05
8.09143e-08
7.88607e-08
1.09746e-05
1.15148e-05
-3.07354e-08
1.15169e-05
3.92762e-08
1.15113e-05
4.95027e-08
1.15189e-05
-1.46872e-08
1.15254e-05
1.73182e-08
1.15174e-05
5.69909e-08
1.15072e-05
1.42531e-08
1.15057e-05
1.02107e-08
1.15053e-05
6.06365e-08
1.14989e-05
6.22946e-08
1.14939e-05
3.9921e-08
1.14955e-05
5.48996e-08
1.14963e-05
7.7836e-08
1.14932e-05
7.66299e-08
1.14917e-05
6.93064e-08
1.14939e-05
7.40375e-08
1.14967e-05
8.24258e-08
1.14981e-05
8.40183e-08
1.14991e-05
7.99542e-08
7.68813e-08
1.1501e-05
1.20644e-05
-2.93525e-08
1.20683e-05
3.54604e-08
1.20631e-05
5.46696e-08
1.20661e-05
-1.77349e-08
1.20741e-05
9.35233e-09
1.20692e-05
6.19243e-08
1.2058e-05
2.53892e-08
1.20553e-05
1.2986e-08
1.20562e-05
5.97245e-08
1.20507e-05
6.77402e-08
1.2045e-05
4.56215e-08
1.20456e-05
5.42834e-08
1.20471e-05
7.64016e-08
1.20449e-05
7.87679e-08
1.20432e-05
7.10377e-08
1.20448e-05
7.24445e-08
1.20479e-05
7.93349e-08
1.20498e-05
8.2065e-08
1.20511e-05
7.87069e-08
7.51573e-08
1.20528e-05
1.26406e-05
-2.73257e-08
1.26454e-05
3.05791e-08
1.26414e-05
5.87341e-08
1.26405e-05
-1.68356e-08
1.26483e-05
1.50951e-09
1.26467e-05
6.35085e-08
1.26358e-05
3.63363e-08
1.26313e-05
1.74901e-08
1.26328e-05
5.82259e-08
1.26287e-05
7.17881e-08
1.26229e-05
5.14473e-08
1.26225e-05
5.46666e-08
1.26242e-05
7.4754e-08
1.26229e-05
8.00337e-08
1.26211e-05
7.28028e-08
1.26222e-05
7.13638e-08
1.26253e-05
7.6254e-08
1.26278e-05
7.9561e-08
1.26294e-05
7.71584e-08
7.34219e-08
1.26311e-05
1.32444e-05
-2.48339e-08
1.32499e-05
2.51625e-08
1.32473e-05
6.13234e-08
1.32434e-05
-1.29357e-08
1.32497e-05
-4.78953e-09
1.32511e-05
6.20707e-08
1.32415e-05
4.59156e-08
1.32354e-05
2.36283e-08
1.32366e-05
5.69952e-08
1.3234e-05
7.44051e-08
1.32285e-05
5.69285e-08
1.32275e-05
5.57186e-08
1.3229e-05
7.31852e-08
1.32285e-05
8.06176e-08
1.32268e-05
7.44642e-08
1.32274e-05
7.07357e-08
1.32303e-05
7.33892e-08
1.32333e-05
7.65809e-08
1.32352e-05
7.52696e-08
7.15724e-08
1.3237e-05
1.38774e-05
-2.20846e-08
1.38828e-05
1.97532e-08
1.38819e-05
6.22396e-08
1.38759e-05
-6.95924e-09
1.38799e-05
-8.71715e-09
1.38834e-05
5.84924e-08
1.3876e-05
5.33254e-08
1.3869e-05
3.06242e-08
1.38692e-05
5.6793e-08
1.38677e-05
7.59868e-08
1.3863e-05
6.16241e-08
1.38615e-05
5.71301e-08
1.38631e-05
7.16363e-08
1.3863e-05
8.07449e-08
1.38615e-05
7.59392e-08
1.38617e-05
7.05479e-08
1.38642e-05
7.08453e-08
1.38675e-05
7.33353e-08
1.38698e-05
7.29178e-08
6.96125e-08
1.38718e-05
1.45408e-05
-1.92687e-08
1.45457e-05
1.48842e-08
1.45465e-05
6.14872e-08
1.45394e-05
1.22274e-10
1.45406e-05
-9.89847e-09
1.45452e-05
5.38188e-08
1.45403e-05
5.82547e-08
1.45335e-05
3.74126e-08
1.45325e-05
5.78648e-08
1.45312e-05
7.72079e-08
1.45273e-05
6.55485e-08
1.45259e-05
5.85172e-08
1.45276e-05
6.99721e-08
1.4528e-05
8.0374e-08
1.45266e-05
7.72522e-08
1.45264e-05
7.07663e-08
1.45286e-05
6.87066e-08
1.45318e-05
7.00775e-08
1.45347e-05
7.00776e-08
6.74548e-08
1.45368e-05
1.52362e-05
-1.65444e-08
1.52401e-05
1.09539e-08
1.52423e-05
5.93073e-08
1.5235e-05
7.40906e-09
1.52336e-05
-8.4815e-09
1.52382e-05
4.92032e-08
1.52356e-05
6.08123e-08
1.52298e-05
4.32746e-08
1.52279e-05
5.97107e-08
1.52266e-05
7.85413e-08
1.52231e-05
6.90746e-08
1.52218e-05
5.97973e-08
1.52236e-05
6.80987e-08
1.52248e-05
7.91893e-08
1.52237e-05
7.83484e-08
1.52232e-05
7.12919e-08
1.52248e-05
6.71252e-08
1.52279e-05
6.69529e-08
1.5231e-05
6.69563e-08
6.49675e-08
1.52335e-05
1.59648e-05
-1.40044e-08
1.59675e-05
8.21197e-09
1.59708e-05
5.60823e-08
1.5964e-05
1.41389e-08
1.59604e-05
-4.82847e-09
1.59641e-05
4.54371e-08
1.59633e-05
6.16231e-08
1.59588e-05
4.77977e-08
1.59569e-05
6.15894e-08
1.59554e-05
8.01111e-08
1.5952e-05
7.24073e-08
1.59505e-05
6.12935e-08
1.59526e-05
6.60218e-08
1.59548e-05
7.70302e-08
1.59543e-05
7.88026e-08
1.59535e-05
7.20675e-08
1.59545e-05
6.61335e-08
1.59573e-05
6.41434e-08
1.59605e-05
6.3757e-08
6.21625e-08
1.59633e-05
1.67283e-05
-1.16531e-08
1.67299e-05
6.60558e-09
1.67335e-05
5.24476e-08
1.67278e-05
1.98343e-08
1.67226e-05
3.81634e-10
1.6725e-05
4.30604e-08
1.6725e-05
6.15622e-08
1.6722e-05
5.08191e-08
1.67208e-05
6.28093e-08
1.67193e-05
8.15934e-08
1.6716e-05
7.57408e-08
1.6714e-05
6.32473e-08
1.6716e-05
6.4036e-08
1.6719e-05
7.40594e-08
1.67197e-05
7.8034e-08
1.67189e-05
7.28677e-08
1.67195e-05
6.56059e-08
1.67217e-05
6.18737e-08
1.67249e-05
6.05935e-08
5.92314e-08
1.67278e-05
1.75281e-05
-9.44095e-09
1.7529e-05
5.77601e-09
1.75323e-05
4.91e-08
1.75277e-05
2.44515e-08
1.75219e-05
6.18391e-09
1.75226e-05
4.23934e-08
1.75227e-05
6.1429e-08
1.75209e-05
5.26351e-08
1.75207e-05
6.29867e-08
1.75199e-05
8.23718e-08
1.75166e-05
7.90439e-08
1.75142e-05
6.56456e-08
1.75156e-05
6.26779e-08
1.75191e-05
7.05344e-08
1.75212e-05
7.59606e-08
1.7521e-05
7.30412e-08
1.75211e-05
6.55022e-08
1.75229e-05
6.0132e-08
1.75258e-05
5.76802e-08
5.62481e-08
1.75288e-05
1.83662e-05
-7.32472e-09
1.83666e-05
5.45268e-09
1.83693e-05
4.63591e-08
1.83654e-05
2.83023e-08
1.83599e-05
1.17459e-08
1.83592e-05
4.31234e-08
1.83587e-05
6.18434e-08
1.83574e-05
5.398e-08
1.83583e-05
6.20782e-08
1.83587e-05
8.19453e-08
1.83558e-05
8.19716e-08
1.8353e-05
6.84212e-08
1.83535e-05
6.2193e-08
1.8357e-05
6.69994e-08
1.83601e-05
7.28658e-08
1.83611e-05
7.20474e-08
1.83611e-05
6.54929e-08
1.83624e-05
5.88321e-08
1.8365e-05
5.51582e-08
5.33132e-08
1.83679e-05
1.92443e-05
-5.26567e-09
1.92443e-05
5.50552e-09
1.92464e-05
4.4217e-08
1.9243e-05
3.17241e-08
1.92379e-05
1.68337e-08
1.92367e-05