/*--------------------------------*- C++ -*----------------------------------*\
| =========                 |                                                 |
| \\      /  F ield         | OpenFOAM: The Open Source CFD Toolbox           |
|  \\    /   O peration     | Version:  2106                                  |
|   \\  /    A nd           | Website:  www.openfoam.com                      |
|    \\/     M anipulation  |                                                 |
\*---------------------------------------------------------------------------*/
FoamFile
{
    version     2.0;
    format      ascii;
    arch        "LSB;label=32;scalar=64";
    class       volVectorField;
    location    "0.805";
    object      U;
}
// * * * * * * * * * * * * * * * * * * * * * * * * * * * * * * * * * * * * * //

dimensions      [0 1 -1 0 0 0 0];

internalField   nonuniform List<vector> 
9600
(
(0.880941 0.00081206 0)
(1.11883 -0.00722979 0)
(0.862136 0.0011274 0)
(1.14309 0.00170736 0)
(0.839143 -0.000470155 0)
(1.12537 0.00190341 0)
(0.926196 0.000796263 0)
(1.09917 -0.00341837 0)
(0.915402 0.00921938 0)
(1.12386 -0.00375942 0)
(0.879424 0.00846145 0)
(1.13753 0.000868528 0)
(0.863531 -0.00620231 0)
(1.13585 -0.00478382 0)
(0.877449 -0.00746402 0)
(1.13713 -0.0042301 0)
(0.879425 -0.00350208 0)
(1.13672 0.000345992 0)
(0.875917 -0.000766887 0)
(1.13005 0.0014046 0)
(0.891448 0.000751588 0)
(1.10508 -0.00693754 0)
(0.872271 0.000748423 0)
(1.12948 0.00214318 0)
(0.857192 -0.000513544 0)
(1.11109 0.00118171 0)
(0.941103 0.000897025 0)
(1.08516 -0.00304223 0)
(0.932069 0.00869653 0)
(1.10117 -0.00295271 0)
(0.905553 0.00798911 0)
(1.10125 0.00154889 0)
(0.908442 -0.00636775 0)
(1.08824 -0.00491758 0)
(0.93178 -0.00765604 0)
(1.07848 -0.0042274 0)
(0.951686 -0.00341607 0)
(1.05599 0.000181871 0)
(0.978502 0.000220692 0)
(1.01389 0.00135071 0)
(0.910497 0.000733097 0)
(1.0819 -0.00668161 0)
(0.893509 0.000403658 0)
(1.10424 0.00239445 0)
(0.890029 -0.000515198 0)
(1.08568 0.000522446 0)
(0.965175 0.00102901 0)
(1.06205 -0.00282285 0)
(0.959959 0.00831425 0)
(1.07056 -0.00244892 0)
(0.944915 0.00776663 0)
(1.06032 0.00153684 0)
(0.958778 -0.00621735 0)
(1.03956 -0.00532504 0)
(0.978329 -0.00738756 0)
(1.03076 -0.00477902 0)
(0.993814 -0.00281032 0)
(1.01729 -0.000627099 0)
(1.00571 0.00133508 0)
(1.00143 0.00187832 0)
(0.934401 0.000762103 0)
(1.05358 -0.00649326 0)
(0.921731 0.000129379 0)
(1.0733 0.00248229 0)
(0.928251 -0.000462107 0)
(1.05771 -5.39524e-05 0)
(0.988613 0.00116313 0)
(1.03888 -0.00270397 0)
(0.98681 0.00814651 0)
(1.04479 -0.00219372 0)
(0.979015 0.00783227 0)
(1.03349 0.00137851 0)
(0.989864 -0.00581661 0)
(1.01295 -0.0056455 0)
(0.997167 -0.00721678 0)
(1.0116 -0.0051331 0)
(1.0039 -0.00254972 0)
(1.01006 -0.000874806 0)
(1.00767 0.00172215 0)
(1.00595 0.00258843 0)
(0.958528 0.000838018 0)
(1.02615 -0.00636738 0)
(0.950127 -9.39985e-05 0)
(1.04386 0.0024668 0)
(0.961733 -0.000400383 0)
(1.03507 -0.000533952 0)
(1.00426 0.00127975 0)
(1.02177 -0.00263744 0)
(1.00487 0.00802555 0)
(1.02857 -0.0020299 0)
(0.999865 0.00792416 0)
(1.02115 0.00130096 0)
(1.00242 -0.00539927 0)
(1.00303 -0.00577631 0)
(1.00026 -0.00713262 0)
(1.00489 -0.00537326 0)
(1.00402 -0.00246765 0)
(1.00815 -0.0010756 0)
(1.0081 0.0019582 0)
(1.00712 0.00310532 0)
(0.978767 0.000949966 0)
(1.005 -0.00629313 0)
(0.972931 -0.000279931 0)
(1.02117 0.00238719 0)
(0.984974 -0.000379448 0)
(1.02064 -0.000873231 0)
(1.01085 0.00137266 0)
(1.0112 -0.0026212 0)
(1.01334 0.00788856 0)
(1.01965 -0.00190254 0)
(1.00908 0.00794995 0)
(1.01598 0.00134756 0)
(1.00555 -0.00500591 0)
(0.99941 -0.00576333 0)
(0.998808 -0.00705493 0)
(1.00047 -0.00559301 0)
(1.00187 -0.00248516 0)
(1.00546 -0.00128247 0)
(1.00719 0.00204369 0)
(1.00653 0.00353683 0)
(0.992925 0.00107579 0)
(0.99257 -0.00624933 0)
(0.987683 -0.000436897 0)
(1.00675 0.00228522 0)
(0.997898 -0.000413801 0)
(1.01279 -0.00107173 0)
(1.01111 0.00144923 0)
(1.00483 -0.00264017 0)
(1.01496 0.00773346 0)
(1.01419 -0.00179408 0)
(1.01112 0.00792995 0)
(1.01284 0.00146873 0)
(1.00545 -0.00461681 0)
(0.997635 -0.0056873 0)
(0.99699 -0.00694334 0)
(0.996832 -0.00577876 0)
(0.998882 -0.00257475 0)
(1.00218 -0.00146497 0)
(1.00453 0.00197954 0)
(1.00459 0.00391299 0)
(1.00103 0.00119205 0)
(0.987955 -0.00621421 0)
(0.99511 -0.000564991 0)
(0.999116 0.00218554 0)
(1.00339 -0.000488626 0)
(1.00847 -0.00116513 0)
(1.00849 0.00152536 0)
(1.00065 -0.00267628 0)
(1.01277 0.00756603 0)
(1.00996 -0.00169403 0)
(1.00959 0.00787652 0)
(1.01017 0.00161291 0)
(1.00472 -0.00425131 0)
(0.996863 -0.00558089 0)
(0.99586 -0.00679186 0)
(0.994405 -0.00590457 0)
(0.996003 -0.00270241 0)
(0.998906 -0.00159039 0)
(1.00106 0.00182981 0)
(1.00157 0.00423393 0)
(1.00456 0.0012839 0)
(0.988376 -0.00617438 0)
(0.997563 -0.000659497 0)
(0.995831 0.00209297 0)
(1.00467 -0.000578596 0)
(1.00554 -0.00119283 0)
(1.00529 0.00160705 0)
(0.997795 -0.00271114 0)
(1.00904 0.00739602 0)
(1.00643 -0.00160043 0)
(1.00672 0.00778815 0)
(1.00796 0.00173663 0)
(1.00415 -0.00393638 0)
(0.996898 -0.00544676 0)
(0.995538 -0.006615 0)
(0.993213 -0.00595141 0)
(0.993831 -0.00283018 0)
(0.996084 -0.00163415 0)
(0.997639 0.00164733 0)
(0.998167 0.00450799 0)
(1.00537 0.00134713 0)
(0.991034 -0.00612457 0)
(0.99743 -0.000719217 0)
(0.994859 0.00200507 0)
(1.00406 -0.000660514 0)
(1.00309 -0.00118432 0)
(1.00256 0.00168779 0)
(0.995987 -0.00273003 0)
(1.00521 0.00722936 0)
(1.00371 -0.00151407 0)
(1.0038 0.00766146 0)
(1.00637 0.00181944 0)
(1.00389 -0.00367903 0)
(0.997412 -0.00528642 0)
(0.995789 -0.00643677 0)
(0.992918 -0.00590565 0)
(0.992467 -0.00293218 0)
(0.993946 -0.00158689 0)
(0.994751 0.00147323 0)
(0.994977 0.00474815 0)
(1.00494 0.00138455 0)
(0.994088 -0.00606393 0)
(0.99635 -0.000747784 0)
(0.994948 0.00191939 0)
(1.00287 -0.000719886 0)
(1.00095 -0.00115937 0)
(1.00057 0.00175731 0)
(0.995007 -0.0027261 0)
(1.00204 0.00706543 0)
(1.00187 -0.00143286 0)
(1.00142 0.00749437 0)
(1.00536 0.00186029 0)
(1.00386 -0.00347515 0)
(0.998044 -0.005107 0)
(0.99629 -0.00626843 0)
(0.993103 -0.00576794 0)
(0.991741 -0.00300762 0)
(0.992481 -0.00145805 0)
(0.99259 0.00134699 0)
(0.992372 0.00495856 0)
(1.00415 0.00140221 0)
(0.996694 -0.0059941 0)
(0.995163 -0.000752009 0)
(0.995418 0.00183481 0)
(1.0017 -0.000751497 0)
(0.999159 -0.00112959 0)
(0.999244 0.00180815 0)
(0.994611 -0.00269925 0)
(0.999745 0.00690165 0)
(1.00076 -0.00135414 0)
(0.999736 0.00729046 0)
(1.00474 0.00187038 0)
(1.00391 -0.0033212 0)
(0.998553 -0.00490655 0)
(0.996791 -0.0061091 0)
(0.993443 -0.00556092 0)
(0.991425 -0.00305022 0)
(0.991556 -0.0012639 0)
(0.991136 0.00129629 0)
(0.990485 0.00512254 0)
(1.00341 0.00140603 0)
(0.998625 -0.00591733 0)
(0.99419 -0.00073896 0)
(0.995925 0.00175073 0)
(1.00078 -0.000756407 0)
(0.997769 -0.00110058 0)
(0.99843 0.00183733 0)
(0.994573 -0.00265226 0)
(0.998241 0.0067358 0)
(1.00013 -0.0012744 0)
(0.998644 0.00705504 0)
(1.00429 0.0018634 0)
(1.00395 -0.00321147 0)
(0.99885 -0.00467826 0)
(0.997163 -0.00596848 0)
(0.993762 -0.00529857 0)
(0.991334 -0.0030589 0)
(0.991022 -0.00102667 0)
(0.990263 0.00133841 0)
(0.989285 0.00522692 0)
(1.00283 0.00140074 0)
(0.99993 -0.0058356 0)
(0.993506 -0.000713661 0)
(0.996313 0.00166645 0)
(1.00015 -0.000739259 0)
(0.996782 -0.00107384 0)
(0.997953 0.00184501 0)
(0.994722 -0.0025876 0)
(0.997325 0.00656566 0)
(0.99978 -0.00118846 0)
(0.997973 0.0067921 0)
(1.0039 0.00185172 0)
(1.00393 -0.00313804 0)
(0.998955 -0.0044212 0)
(0.997381 -0.00585005 0)
(0.994001 -0.00499656 0)
(0.991359 -0.00303002 0)
(0.990763 -0.000780652 0)
(0.989821 0.00147584 0)
(0.988655 0.00528053 0)
(1.00244 0.00138997 0)
(1.00074 -0.00575066 0)
(0.993092 -0.000679352 0)
(0.996548 0.00158142 0)
(0.99976 -0.000706376 0)
(0.996153 -0.00104862 0)
(0.997682 0.00183389 0)
(0.99494 -0.00250818 0)
(0.996809 0.00638992 0)
(0.999585 -0.00109241 0)
(0.997583 0.00650553 0)
(1.00351 0.00184647 0)
(1.00383 -0.00309535 0)
(0.998933 -0.0041404 0)
(0.997473 -0.0057398 0)
(0.994171 -0.00467871 0)
(0.991444 -0.00295758 0)
(0.990701 -0.000563093 0)
(0.989685 0.00169189 0)
(0.988457 0.00530676 0)
(1.00219 0.00137649 0)
(1.00119 -0.0056641 0)
(0.992894 -0.000638187 0)
(0.996661 0.00149595 0)
(0.999535 -0.000664052 0)
(0.99581 -0.00102362 0)
(0.997533 0.00180834 0)
(0.995159 -0.00241796 0)
(0.996553 0.0062068 0)
(0.999482 -0.000983868 0)
(0.997382 0.00619676 0)
(1.00314 0.00185771 0)
(1.00369 -0.00308167 0)
(0.998849 -0.00383602 0)
(0.997492 -0.00563204 0)
(0.994301 -0.00436346 0)
(0.991568 -0.00282568 0)
(0.990779 -0.000385151 0)
(0.989756 0.00195241 0)
(0.988556 0.00532257 0)
(1.00204 0.00136233 0)
(1.00141 -0.00557746 0)
(0.992848 -0.000591645 0)
(0.996705 0.00141049 0)
(0.999409 -0.000616967 0)
(0.995665 -0.000997547 0)
(0.997454 0.00177156 0)
(0.995349 -0.00231738 0)
(0.996454 0.00601272 0)
(0.999439 -0.000859697 0)
(0.997309 0.00586545 0)
(1.00279 0.00188895 0)
(1.00352 -0.00309163 0)
(0.998746 -0.00351596 0)
(0.997477 -0.00551757 0)
(0.994421 -0.00406639 0)
(0.99172 -0.00262641 0)
(0.990952 -0.000245309 0)
(0.989962 0.0022248 0)
(0.988839 0.00534419 0)
(1.00194 0.00134893 0)
(1.00149 -0.00549204 0)
(0.992896 -0.000540745 0)
(0.996721 0.00132539 0)
(0.99934 -0.000568456 0)
(0.995639 -0.000968829 0)
(0.997416 0.00172588 0)
(0.99551 -0.00220611 0)
(0.996442 0.00580635 0)
(0.999431 -0.000719168 0)
(0.997318 0.0055144 0)
(1.00247 0.00193656 0)
(1.00334 -0.00311687 0)
(0.998647 -0.0031945 0)
(0.997455 -0.00537597 0)
(0.994549 -0.00381212 0)
(0.991894 -0.00236181 0)
(0.991187 -0.000140061 0)
(0.99025 0.00248011 0)
(0.989218 0.00538728 0)
(1.00186 0.001337 0)
(1.00151 -0.00540874 0)
(0.992994 -0.000486021 0)
(0.996733 0.0012412 0)
(0.999299 -0.000520624 0)
(0.995675 -0.000937435 0)
(0.997402 0.00167243 0)
(0.995649 -0.00208405 0)
(0.996473 0.00558435 0)
(0.999442 -0.000560533 0)
(0.997374 0.00514702 0)
(1.00217 0.00199903 0)
(1.00317 -0.00314838 0)
(0.998559 -0.00288354 0)
(0.997435 -0.00519051 0)
(0.994697 -0.00361244 0)
(0.992086 -0.00204744 0)
(0.991458 -5.81134e-05 0)
(0.990589 0.00268925 0)
(0.989638 0.00545466 0)
(1.00179 0.00132699 0)
(1.0015 -0.00532816 0)
(0.993116 -0.000427822 0)
(0.996748 0.0011587 0)
(0.999274 -0.000475191 0)
(0.995738 -0.000902433 0)
(0.997398 0.001611 0)
(0.995778 -0.00195133 0)
(0.996521 0.00534688 0)
(0.99946 -0.000387835 0)
(0.997454 0.00476885 0)
(1.00189 0.00207225 0)
(1.00301 -0.00317527 0)
(0.998486 -0.00259552 0)
(0.997417 -0.00495125 0)
(0.994866 -0.00345225 0)
(0.992291 -0.00170652 0)
(0.991747 2.80697e-05 0)
(0.99096 0.00283738 0)
(0.990067 0.00554102 0)
(1.00173 0.00131919 0)
(1.00148 -0.00525053 0)
(0.993247 -0.000366654 0)
(0.996768 0.00107844 0)
(0.999258 -0.000433221 0)
(0.995811 -0.000860959 0)
(0.997399 0.00154107 0)
(0.995904 -0.00180775 0)
(0.996576 0.00509278 0)
(0.999476 -0.000205184 0)
(0.997545 0.00438251 0)
(1.00161 0.00214971 0)
(1.00285 -0.00318776 0)
(0.998427 -0.00234413 0)
(0.9974 -0.00465995 0)
(0.995055 -0.00332197 0)
(0.992509 -0.00135005 0)
(0.992042 0.000156543 0)
(0.991354 0.0029294 0)
(0.990493 0.00563891 0)
(1.00166 0.00131363 0)
(1.00146 -0.00517621 0)
(0.993383 -0.000302328 0)
(0.996792 0.0010002 0)
(0.999249 -0.000394116 0)
(0.995888 -0.000814306 0)
(0.997402 0.00146263 0)
(0.99603 -0.00165286 0)
(0.996634 0.00482204 0)
(0.999489 -1.67369e-05 0)
(0.997643 0.00399014 0)
(1.00134 0.00222377 0)
(1.0027 -0.00317502 0)
(0.998385 -0.00213529 0)
(0.99738 -0.00432166 0)
(0.995261 -0.00321267 0)
(0.992742 -0.00100534 0)
(0.992336 0.000326739 0)
(0.991764 0.00296925 0)
(0.990914 0.00573186 0)
(1.00159 0.00131031 0)
(1.00145 -0.00510555 0)
(0.993523 -0.000235509 0)
(0.996818 0.000925347 0)
(0.999243 -0.000359578 0)
(0.995967 -0.00075968 0)
(0.997408 0.00137377 0)
(0.996157 -0.00148616 0)
(0.996696 0.00454015 0)
(0.999498 0.000174222 0)
(0.997745 0.00360552 0)
(1.00108 0.0022781 0)
(1.00254 -0.00312844 0)
(0.998361 -0.00196669 0)
(0.997357 -0.00394019 0)
(0.995479 -0.00310589 0)
(0.992992 -0.000688496 0)
(0.992625 0.000533932 0)
(0.992187 0.00296807 0)
(0.991334 0.0058016 0)
(1.00152 0.00130945 0)
(1.00143 -0.0050385 0)
(0.993665 -0.000166695 0)
(0.996846 0.000855747 0)
(0.999243 -0.000332057 0)
(0.996046 -0.000693306 0)
(0.997417 0.00127212 0)
(0.996286 -0.00131009 0)
(0.996762 0.00425176 0)
(0.999502 0.000364601 0)
(0.997849 0.00323956 0)
(1.00082 0.00231078 0)
(1.00239 -0.00303897 0)
(0.998354 -0.00183623 0)
(0.997331 -0.00352747 0)
(0.995706 -0.00298508 0)
(0.993262 -0.000399418 0)
(0.992905 0.000777223 0)
(0.992617 0.00294162 0)
(0.99176 0.00583017 0)
(1.00145 0.0013106 0)
(1.00142 -0.00497403 0)
(0.99381 -9.6627e-05 0)
(0.996875 0.000791886 0)
(0.999246 -0.000312788 0)
(0.996127 -0.000614808 0)
(0.99743 0.0011579 0)
(0.996417 -0.00112717 0)
(0.996833 0.00396196 0)
(0.999503 0.000543967 0)
(0.997955 0.00290001 0)
(1.00057 0.00231575 0)
(1.00223 -0.00291012 0)
(0.998367 -0.00173663 0)
(0.997305 -0.00310519 0)
(0.995937 -0.00284065 0)
(0.993554 -0.000156638 0)
(0.993176 0.00104433 0)
(0.993049 0.00290337 0)
(0.992198 0.00580113 0)
(1.00138 0.00131375 0)
(1.00142 -0.00491194 0)
(0.99396 -2.64158e-05 0)
(0.996905 0.000735064 0)
(0.999255 -0.000303645 0)
(0.996209 -0.000524333 0)
(0.997447 0.00103339 0)
(0.99655 -0.000941214 0)
(0.996909 0.00367615 0)
(0.9995 0.000704394 0)
(0.998061 0.00259677 0)
(1.00034 0.00229242 0)
(1.00208 -0.00275271 0)
(0.998397 -0.00165726 0)
(0.997282 -0.00268048 0)
(0.996167 -0.00266791 0)
(0.993869 4.1442e-05 0)
(0.99344 0.00132577 0)
(0.993473 0.00286842 0)
(0.992655 0.00570313 0)
(1.00131 0.00131876 0)
(1.00141 -0.00485191 0)
(0.994115 4.25382e-05 0)
(0.996934 0.000688947 0)
(0.999269 -0.000306328 0)
(0.996293 -0.000420392 0)
(0.997471 0.000898681 0)
(0.996684 -0.000757194 0)
(0.996991 0.00340176 0)
(0.999496 0.000835064 0)
(0.998165 0.00233358 0)
(1.00012 0.0022403 0)
(1.00192 -0.00256996 0)
(0.998446 -0.00158455 0)
(0.997265 -0.002254 0)
(0.996394 -0.00246415 0)
(0.994207 0.00020789 0)
(0.9937 0.00161515 0)
(0.993883 0.00285481 0)
(0.993135 0.00553437 0)
(1.00123 0.00132492 0)
(1.00141 -0.00479226 0)
(0.994275 0.000106396 0)
(0.996964 0.000655264 0)
(0.999288 -0.000321642 0)
(0.996377 -0.000300543 0)
(0.9975 0.000757623 0)
(0.99682 -0.000579782 0)
(0.997078 0.00314483 0)
(0.999492 0.000929627 0)
(0.998267 0.0021029 0)
(0.999907 0.00217272 0)
(1.00176 -0.00236997 0)
(0.998513 -0.00151075 0)
(0.997257 -0.00183663 0)
(0.996612 -0.00222903 0)
(0.994569 0.000334604 0)
(0.99396 0.0018994 0)
(0.994267 0.00288122 0)
(0.993637 0.00530561 0)
(1.00116 0.00133262 0)
(1.00141 -0.00473362 0)
(0.994442 0.000164195 0)
(0.996993 0.000635712 0)
(0.999313 -0.000350613 0)
(0.996462 -0.000169197 0)
(0.997534 0.000615853 0)
(0.996961 -0.000412574 0)
(0.997169 0.00291371 0)
(0.999489 0.00098741 0)
(0.998368 0.00190197 0)
(0.999714 0.00209848 0)
(1.0016 -0.00216497 0)
(0.998597 -0.00143117 0)
(0.997259 -0.00142721 0)
(0.996819 -0.00196076 0)
(0.994952 0.000418718 0)
(0.994227 0.00215829 0)
(0.994619 0.00295919 0)
(0.994152 0.00504177 0)
(1.00108 0.0013406 0)
(1.00141 -0.00467376 0)
(0.994616 0.00021333 0)
(0.997022 0.000634075 0)
(0.999344 -0.000394968 0)
(0.996547 -2.64527e-05 0)
(0.997574 0.000475648 0)
(0.997105 -0.000268271 0)
(0.997264 0.00271915 0)
(0.999488 0.00101048 0)
(0.998468 0.0017303 0)
(0.999536 0.00202518 0)
(1.00145 -0.00195785 0)
(0.998701 -0.00134679 0)
(0.997276 -0.00103328 0)
(0.997009 -0.00166099 0)
(0.995351 0.000475561 0)
(0.994511 0.00237797 0)
(0.994936 0.00309178 0)
(0.994664 0.00477875 0)
(1.00101 0.00134816 0)
(1.00141 -0.00460809 0)
(0.994798 0.000246986 0)
(0.997051 0.000653901 0)
(0.999381 -0.000455006 0)
(0.996633 0.000125399 0)
(0.997617 0.000345541 0)
(0.997257 -0.000154898 0)
(0.997361 0.00256157 0)
(0.99949 0.00100678 0)
(0.99857 0.00157412 0)
(0.999372 0.00197212 0)
(1.0013 -0.00174441 0)
(0.998823 -0.00126017 0)
(0.997311 -0.000664862 0)
(0.997181 -0.00134161 0)
(0.995762 0.000509007 0)
(0.994819 0.00253816 0)
(0.995221 0.00326445 0)
(0.995154 0.00455712 0)
(1.00093 0.00135531 0)
(1.00142 -0.00453759 0)
(0.994988 0.000264386 0)
(0.997078 0.000698734 0)
(0.999427 -0.000525648 0)
(0.996721 0.000277125 0)
(0.997662 0.000232504 0)
(0.997415 -7.41232e-05 0)
(0.99746 0.00244048 0)
(0.999494 0.000985138 0)
(0.998676 0.0014261 0)
(0.999225 0.00193511 0)
(1.00115 -0.00151646 0)
(0.998963 -0.00117753 0)
(0.997367 -0.000319753 0)
(0.997331 -0.000998187 0)
(0.996176 0.000530751 0)
(0.99516 0.00262993 0)
(0.995483 0.00345219 0)
(0.995601 0.00441697 0)
(1.00086 0.00136066 0)
(1.00143 -0.00446022 0)
(0.995189 0.000263422 0)
(0.997106 0.000763496 0)
(0.999478 -0.000602607 0)
(0.996811 0.000422477 0)
(0.997707 0.000147698 0)
(0.997582 -4.00928e-05 0)
(0.997563 0.00235035 0)
(0.999497 0.000957665 0)
(0.998789 0.00128258 0)
(0.999097 0.00191518 0)
(1.001 -0.00126932 0)
(0.999119 -0.0010995 0)
(0.997449 -1.97001e-05 0)
(0.997461 -0.000635144 0)
(0.996582 0.000562133 0)
(0.995536 0.00265966 0)
(0.99574 0.00361752 0)
(0.995995 0.00436776 0)
(1.00079 0.00136336 0)
(1.00144 -0.00437255 0)
(0.9954 0.000237891 0)
(0.997133 0.00085128 0)
(0.999537 -0.000685454 0)
(0.996907 0.000554622 0)
(0.99775 0.000100943 0)
(0.997757 -4.84501e-05 0)
(0.99767 0.00228015 0)
(0.999499 0.000937255 0)
(0.998911 0.00113715 0)
(0.998991 0.001906 0)
(1.00086 -0.00100028 0)
(0.999287 -0.00103222 0)
(0.997561 0.000240059 0)
(0.997576 -0.000261658 0)
(0.996973 0.000613981 0)
(0.995945 0.00264178 0)
(0.996009 0.00373391 0)
(0.996337 0.00438587 0)
(1.00072 0.0013627 0)
(1.00146 -0.00427121 0)
(0.995622 0.000186271 0)
(0.99716 0.000956693 0)
(0.9996 -0.000765743 0)
(0.99701 0.000664793 0)
(0.997788 9.51593e-05 0)
(0.99794 -9.31197e-05 0)
(0.997784 0.00222018 0)
(0.999498 0.000936288 0)
(0.999041 0.000984801 0)
(0.998912 0.00190599 0)
(1.00071 -0.00070543 0)
(0.999462 -0.000966897 0)
(0.997708 0.000454662 0)
(0.997676 0.000120053 0)
(0.997339 0.000696906 0)
(0.996378 0.00259545 0)
(0.996301 0.00379851 0)
(0.996639 0.00443075 0)
(1.00065 0.00135706 0)
(1.00147 -0.00415388 0)
(0.995856 0.000110976 0)
(0.997188 0.00107328 0)
(0.999667 -0.000837099 0)
(0.997122 0.000747021 0)
(0.997821 0.000133994 0)
(0.998129 -0.000164333 0)
(0.99791 0.00215886 0)
(0.999491 0.000961656 0)
(0.999179 0.000831439 0)
(0.998863 0.00190021 0)
(1.00055 -0.000387907 0)
(0.999636 -0.000882754 0)
(0.997893 0.000601836 0)
(0.997773 0.000495357 0)
(0.997674 0.000814719 0)
(0.996828 0.00252698 0)
(0.996622 0.00381728 0)
(0.99692 0.00447053 0)
(1.00058 0.00134606 0)
(1.00148 -0.00402085 0)
(0.996103 1.6472e-05 0)
(0.997217 0.00119854 0)
(0.999736 -0.000893096 0)
(0.997245 0.000793771 0)
(0.997848 0.000214277 0)
(0.99832 -0.000248881 0)
(0.998049 0.00208762 0)
(0.999479 0.00101982 0)
(0.999323 0.000688042 0)
(0.998851 0.00186706 0)
(1.0004 -6.02303e-05 0)
(0.9998 -0.00077108 0)
(0.998116 0.000690205 0)
(0.997874 0.000847355 0)
(0.997972 0.000972139 0)
(0.997283 0.0024429 0)
(0.996975 0.00379408 0)
(0.997194 0.00448914 0)
(1.00052 0.00132873 0)
(1.00148 -0.00386811 0)
(0.996361 -9.43802e-05 0)
(0.99725 0.00131934 0)
(0.999803 -0.000923656 0)
(0.99738 0.000805254 0)
(0.997869 0.000328685 0)
(0.99851 -0.000334314 0)
(0.998206 0.00199016 0)
(0.999462 0.00112039 0)
(0.999465 0.000565247 0)
(0.998878 0.00179701 0)
(1.00026 0.000255829 0)
(0.999946 -0.000621688 0)
(0.998371 0.00073202 0)
(0.997992 0.00115608 0)
(0.998232 0.00117399 0)
(0.997732 0.00236138 0)
(0.997361 0.00372685 0)
(0.997475 0.00447791 0)
(1.00046 0.00130414 0)
(1.00149 -0.00369371 0)
(0.996629 -0.000222897 0)
(0.997287 0.00143085 0)
(0.999867 -0.000927286 0)
(0.997529 0.00078353 0)
(0.997886 0.000467489 0)
(0.998693 -0.000398474 0)
(0.998383 0.00185941 0)
(0.999443 0.00125001 0)
(0.9996 0.000481899 0)
(0.998942 0.00168973 0)
(1.00013 0.000552452 0)
(1.00007 -0.000431176 0)
(0.998653 0.000744043 0)
(0.998139 0.00140261 0)
(0.998455 0.00140841 0)
(0.998159 0.00230492 0)
(0.997772 0.00361824 0)
(0.997773 0.00443652 0)
(1.0004 0.00127289 0)
(1.00149 -0.00349787 0)
(0.996907 -0.000367301 0)
(0.997331 0.00152532 0)
(0.999925 -0.000901046 0)
(0.997692 0.00072967 0)
(0.9979 0.000622059 0)
(0.998865 -0.000430058 0)
(0.998581 0.00169993 0)
(0.999427 0.0013845 0)
(0.999719 0.000448816 0)
(0.999043 0.00155116 0)
(1.00002 0.000814816 0)
(1.00017 -0.000204998 0)
(0.998951 0.000746582 0)
(0.998321 0.00157921 0)
(0.998653 0.00165428 0)
(0.998552 0.00229616 0)
(0.998202 0.00348074 0)
(0.998096 0.00435833 0)
(1.00035 0.00123221 0)
(1.00148 -0.00327409 0)
(0.997191 -0.000525747 0)
(0.997383 0.00159392 0)
(0.999976 -0.000840987 0)
(0.997868 0.000650646 0)
(0.997915 0.000779956 0)
(0.99902 -0.000421388 0)
(0.998799 0.00151688 0)
(0.99942 0.00150992 0)
(0.999818 0.000471227 0)
(0.999173 0.00140428 0)
(0.999952 0.00102821 0)
(1.00025 4.28335e-05 0)
(0.999252 0.000759016 0)
(0.998544 0.00169493 0)
(0.99884 0.00188358 0)
(0.998901 0.00233986 0)
(0.998632 0.00334437 0)
(0.998443 0.00424345 0)
(1.0003 0.0011824 0)
(1.00146 -0.00302405 0)
(0.997478 -0.000691678 0)
(0.997445 0.0016303 0)
(1.00002 -0.000748771 0)
(0.998054 0.00055398 0)
(0.997934 0.000928677 0)
(0.999155 -0.000365772 0)
(0.999031 0.00132049 0)
(0.999429 0.00160853 0)
(0.999895 0.000547836 0)
(0.999324 0.00126647 0)
(0.999918 0.00119242 0)
(1.00031 0.000304066 0)
(0.999547 0.000789074 0)
(0.998802 0.00176101 0)
(0.99903 0.00207417 0)
(0.99921 0.00241718 0)
(0.999047 0.0032332 0)
(0.99881 0.00410088 0)
(1.00025 0.001125 0)
(1.00143 -0.00275343 0)
(0.997764 -0.000858762 0)
(0.997519 0.00163322 0)
(1.00005 -0.000632185 0)
(0.998247 0.000452815 0)
(0.997962 0.00105814 0)
(0.999267 -0.000265471 0)
(0.999273 0.00112577 0)
(0.999459 0.0016717 0)
(0.999951 0.000664569 0)
(0.999485 0.00114919 0)
(0.999925 0.00130545 0)
(1.00035 0.000568479 0)
(0.999826 0.000843765 0)
(0.999091 0.00178593 0)
(0.999233 0.00222512 0)
(0.999486 0.00251595 0)
(0.999436 0.00315784 0)
(0.999187 0.00394762 0)
(1.00021 0.0010589 0)
(1.00139 -0.00246742 0)
(0.998046 -0.00101835 0)
(0.997607 0.00159787 0)
(1.00007 -0.000493009 0)
(0.998445 0.000353091 0)
(0.998001 0.00115792 0)
(0.999354 -0.000130419 0)
(0.999517 0.00095059 0)
(0.999515 0.00169167 0)
(0.999989 0.000802654 0)
(0.999646 0.001069 0)
(0.99997 0.00137244 0)
(1.0004 0.000823589 0)
(1.00008 0.000931501 0)
(0.999402 0.00177251 0)
(0.99946 0.00232263 0)
(0.999738 0.00261549 0)
(0.999791 0.00311823 0)
(0.999561 0.00380318 0)
(1.00017 0.000986807 0)
(1.00134 -0.00218029 0)
(0.998316 -0.0011547 0)
(0.997709 0.00152284 0)
(1.00007 -0.000340098 0)
(0.998641 0.000263281 0)
(0.998053 0.00122402 0)
(0.999418 2.779e-05 0)
(0.999754 0.000808983 0)
(0.999595 0.0016728 0)
(1.00002 0.000942617 0)
(0.9998 0.00102353 0)
(1.00005 0.00140601 0)
(1.00044 0.00105713 0)
(1.0003 0.00105511 0)
(0.999719 0.00175073 0)
(0.999715 0.00236766 0)
(0.999981 0.00269739 0)
(1.00011 0.00310838 0)
(0.999922 0.00367796 0)
(1.00014 0.000910298 0)
(1.00128 -0.00189717 0)
(0.998573 -0.00125922 0)
(0.997825 0.00141193 0)
(1.00007 -0.000182044 0)
(0.998831 0.000193034 0)
(0.998119 0.00125452 0)
(0.999463 0.000203188 0)
(0.99998 0.000712048 0)
(0.999699 0.00163769 0)
(1.00004 0.00107917 0)
(0.999942 0.00100349 0)
(1.00016 0.00141184 0)
(1.0005 0.00125546 0)
(1.00049 0.00120129 0)
(1.00003 0.00174508 0)
(0.999993 0.00236442 0)
(1.00023 0.00274512 0)
(1.00041 0.00311171 0)
(1.00026 0.00358232 0)
(1.00011 0.000832032 0)
(1.00121 -0.00162795 0)
(0.998812 -0.0013182 0)
(0.997955 0.00126781 0)
(1.00007 -3.24553e-05 0)
(0.99901 0.000151649 0)
(0.9982 0.00126007 0)
(0.999492 0.000378411 0)
(1.00019 0.00065063 0)
(0.999823 0.00159346 0)
(1.00005 0.00120929 0)
(1.00007 0.00100845 0)
(1.0003 0.00139511 0)
(1.00058 0.00141747 0)
(1.00066 0.00136493 0)
(1.00032 0.0017652 0)
(1.00028 0.00232962 0)
(1.00048 0.00274713 0)
(1.00068 0.003103 0)
(1.00057 0.0035096 0)
(1.00008 0.000754467 0)
(1.00113 -0.00138024 0)
(0.999029 -0.00132849 0)
(0.998095 0.00109958 0)
(1.00006 9.90478e-05 0)
(0.999178 0.000140863 0)
(0.99829 0.00124808 0)
(0.999509 0.000536478 0)
(1.00038 0.000619109 0)
(0.999964 0.00154419 0)
(1.00006 0.00133226 0)
(1.00017 0.00104053 0)
(1.00046 0.00135656 0)
(1.00068 0.00153315 0)
(1.00081 0.0015361 0)
(1.00057 0.00181548 0)
(1.00057 0.00229723 0)
(1.00075 0.00271237 0)
(1.00096 0.00306975 0)
(1.00086 0.00344602 0)
(1.00006 0.000679149 0)
(1.00104 -0.00115612 0)
(0.999223 -0.00129693 0)
(0.998243 0.000922389 0)
(1.00006 0.000201834 0)
(0.999332 0.000155252 0)
(0.99839 0.00123202 0)
(0.999515 0.000670465 0)
(1.00054 0.000606193 0)
(1.00012 0.00149265 0)
(1.00008 0.00145744 0)
(1.00024 0.00110633 0)
(1.00062 0.00131083 0)
(1.00081 0.00159312 0)
(1.00095 0.00168836 0)
(1.0008 0.00189001 0)
(1.00084 0.00227692 0)
(1.00102 0.00265645 0)
(1.00124 0.00300261 0)
(1.00114 0.00337024 0)
(1.00004 0.000607689 0)
(1.00095 -0.000958459 0)
(0.999393 -0.0012304 0)
(0.998393 0.000751389 0)
(1.00006 0.000266331 0)
(0.999477 0.000184728 0)
(0.998493 0.00122455 0)
(0.999511 0.000787922 0)
(1.00069 0.000596419 0)
(1.00029 0.00143481 0)
(1.00011 0.00157836 0)
(1.00029 0.00120586 0)
(1.00077 0.00127762 0)
(1.00098 0.00160136 0)
(1.0011 0.00180672 0)
(1.00099 0.00199021 0)
(1.00108 0.0022787 0)
(1.00128 0.00260412 0)
(1.00151 0.00291194 0)
(1.00142 0.00326529 0)
(1.00003 0.000542474 0)
(1.00086 -0.000788627 0)
(0.99954 -0.00114122 0)
(0.998541 0.000603826 0)
(1.00007 0.000295934 0)
(0.999615 0.00021611 0)
(0.998601 0.00123197 0)
(0.999496 0.0009022 0)
(1.00082 0.000589048 0)
(1.00048 0.00136448 0)
(1.00014 0.00168864 0)
(1.0003 0.00134046 0)
(1.0009 0.00126978 0)
(1.00116 0.001564 0)
(1.00126 0.0018717 0)
(1.00116 0.00208665 0)
(1.00129 0.00230468 0)
(1.00151 0.00256514 0)
(1.00177 0.00282477 0)
(1.0017 0.00314208 0)
(1.00001 0.000482959 0)
(1.00077 -0.000644509 0)
(0.999666 -0.00103515 0)
(0.998684 0.000486175 0)
(1.00009 0.00029832 0)
(0.999752 0.000234765 0)
(0.998714 0.00124489 0)
(0.999466 0.0010225 0)
(1.00091 0.000589187 0)
(1.00068 0.00126623 0)
(1.00021 0.00177979 0)
(1.00029 0.00151274 0)
(1.00099 0.00130814 0)
(1.00134 0.00151447 0)
(1.00146 0.00188008 0)
(1.00134 0.00215547 0)
(1.00148 0.00234676 0)
(1.00171 0.00253788 0)
(1.002 0.00274626 0)
(1.00197 0.00301469 0)
(1.00001 0.000429681 0)
(1.00069 -0.000524275 0)
(0.999775 -0.000922378 0)
(0.998817 0.000400911 0)
(1.00011 0.000290063 0)
(0.999889 0.000229487 0)
(0.998839 0.00124836 0)
(0.999426 0.00116046 0)
(1.00098 0.0006147 0)
(1.00089 0.0011318 0)
(1.00031 0.00182094 0)
(1.00027 0.00169963 0)
(1.00103 0.0013953 0)
(1.00151 0.00147971 0)
(1.00167 0.00183664 0)
(1.00152 0.00218425 0)
(1.00164 0.00238885 0)
(1.00188 0.00253296 0)
(1.00221 0.00268002 0)
(1.00222 0.00289867 0)
(0.999999 0.000383835 0)
(1.00061 -0.000428555 0)
(0.99987 -0.000809225 0)
(0.998943 0.000346747 0)
(1.00013 0.000281398 0)
(1.00003 0.000206007 0)
(0.998981 0.00123403 0)
(0.999381 0.00130562 0)
(1.00099 0.000683302 0)
(1.00111 0.000987668 0)
(1.00047 0.001791 0)
(1.00025 0.00187999 0)
(1.00102 0.00154049 0)
(1.00165 0.00147822 0)
(1.0019 0.00176666 0)
(1.00173 0.00215687 0)
(1.0018 0.00240531 0)
(1.00202 0.00254074 0)
(1.00238 0.00263025 0)
(1.00244 0.00279215 0)
(0.999996 0.000341801 0)
(1.00053 -0.000346915 0)
(0.999956 -0.000702436 0)
(0.999059 0.00031945 0)
(1.00014 0.000279965 0)
(1.00017 0.000173359 0)
(0.999146 0.00119433 0)
(0.999342 0.00144138 0)
(1.00096 0.00080817 0)
(1.0013 0.000869203 0)
(1.00067 0.00167538 0)
(1.00026 0.00201337 0)
(1.00098 0.00172755 0)
(1.00172 0.00152827 0)
(1.0021 0.00170942 0)
(1.00196 0.00208712 0)
(1.00197 0.00238156 0)
(1.00214 0.00253767 0)
(1.0025 0.00259919 0)
(1.00263 0.00269274 0)
(0.999996 0.0003047 0)
(1.00046 -0.000275685 0)
(1.00003 -0.000607212 0)
(0.99917 0.000313888 0)
(1.00016 0.000296283 0)
(1.0003 0.000134656 0)
(0.999336 0.0011256 0)
(0.999323 0.00155611 0)
(1.00089 0.000974926 0)
(1.00145 0.000807855 0)
(1.00092 0.00150243 0)
(1.00033 0.00206598 0)
(1.00092 0.00191326 0)
(1.00174 0.00163319 0)
(1.00227 0.00167833 0)
(1.0022 0.00200149 0)
(1.00217 0.00231591 0)
(1.00227 0.00250372 0)
(1.0026 0.00257561 0)
(1.00277 0.00261302 0)
(0.999999 0.000269407 0)
(1.0004 -0.000207613 0)
(1.00011 -0.000526223 0)
(0.999278 0.000322007 0)
(1.00016 0.000336925 0)
(1.00043 0.000101752 0)
(0.999552 0.00101916 0)
(0.999336 0.00163834 0)
(1.00079 0.00115723 0)
(1.00154 0.000817303 0)
(1.00118 0.00132657 0)
(1.00048 0.00201854 0)
(1.00087 0.00206745 0)
(1.00171 0.00177816 0)
(1.00239 0.00168882 0)
(1.00241 0.00192432 0)
(1.00237 0.00222818 0)
(1.00242 0.00243405 0)
(1.00269 0.00253211 0)
(1.00287 0.00255282 0)
(1 0.000233845 0)
(1.00034 -0.000136516 0)
(1.00017 -0.000458876 0)
(0.999386 0.000333396 0)
(1.00015 0.000402054 0)
(1.00053 9.11034e-05 0)
(0.99979 0.000889263 0)
(0.999393 0.00166988 0)
(1.00067 0.00134313 0)
(1.00156 0.000892239 0)
(1.00142 0.00118666 0)
(1.00069 0.00188553 0)
(1.00088 0.00215139 0)
(1.00164 0.00192856 0)
(1.00244 0.00174614 0)
(1.0026 0.00186711 0)
(1.00258 0.00213772 0)
(1.00258 0.00234546 0)
(1.00279 0.00245656 0)
(1.00294 0.00249555 0)
(1.00001 0.000199758 0)
(1.00029 -6.76791e-05 0)
(1.00023 -0.000392247 0)
(0.999497 0.000334706 0)
(1.00014 0.000487296 0)
(1.00061 0.000115635 0)
(1.00004 0.000753433 0)
(0.9995 0.00163954 0)
(1.00057 0.00150594 0)
(1.00153 0.00102278 0)
(1.00162 0.00110543 0)
(1.00094 0.00172475 0)
(1.00095 0.00213874 0)
(1.00158 0.00205128 0)
(1.00244 0.00183516 0)
(1.00274 0.00184064 0)
(1.00277 0.00204945 0)
(1.00274 0.00225482 0)
(1.00291 0.00236026 0)
(1.00301 0.00241962 0)
(1.00002 0.000167411 0)
(1.00024 -1.67039e-06 0)
(1.00028 -0.000323135 0)
(0.999613 0.000323709 0)
(1.00014 0.000572497 0)
(1.00066 0.000192902 0)
(1.00028 0.000630216 0)
(0.999656 0.00154912 0)
(1.00049 0.00162076 0)
(1.00146 0.00117725 0)
(1.00176 0.00109092 0)
(1.0012 0.00157428 0)
(1.00109 0.0020489 0)
(1.00155 0.00211067 0)
(1.0024 0.00192649 0)
(1.00282 0.00185046 0)
(1.00295 0.00197013 0)
(1.00289 0.00216335 0)
(1.00302 0.00226347 0)
(1.00308 0.00231774 0)
(1.00003 0.00013706 0)
(1.00019 5.78233e-05 0)
(1.00032 -0.000247792 0)
(0.999731 0.000308159 0)
(1.00014 0.000640392 0)
(1.00068 0.000309586 0)
(1.0005 0.00054852 0)
(0.999853 0.00141664 0)
(1.00046 0.00168184 0)
(1.00136 0.00132599 0)