/*--------------------------------*- C++ -*----------------------------------*\
| =========                 |                                                 |
| \\      /  F ield         | OpenFOAM: The Open Source CFD Toolbox           |
|  \\    /   O peration     | Version:  2106                                  |
|   \\  /    A nd           | Website:  www.openfoam.com                      |
|    \\/     M anipulation  |                                                 |
\*---------------------------------------------------------------------------*/
FoamFile
{
    version     2.0;
    format      ascii;
    arch        "LSB;label=32;scalar=64";
    class       volScalarField;
    location    "0.77";
    object      p;
}
// * * * * * * * * * * * * * * * * * * * * * * * * * * * * * * * * * * * * * //

dimensions      [0 2 -2 0 0 0 0];

internalField   nonuniform List<scalar> 
9600
(
5.03778e-11
0.00366235
0.00356134
0.00293382
0.0040839
0.00322772
0.00263757
0.00320348
0.00209813
0.00328499
0.00385429
0.00453263
0.00486113
0.00541808
0.00626147
0.00714842
0.00884242
0.00969285
0.0121976
0.0183482
-5.18e-07
0.0036631
0.00356456
0.00293482
0.00408366
0.0032226
0.00266814
0.00319764
0.00211168
0.00328592
0.0038481
0.00453427
0.00486084
0.00541326
0.00631236
0.0071345
0.00886192
0.00966
0.0125076
0.017897
-4.34611e-07
0.00366502
0.00356856
0.00293506
0.00408181
0.00321785
0.00268223
0.00318832
0.0021299
0.00328436
0.00384183
0.00453709
0.0048583
0.00540943
0.00631699
0.0071168
0.00886809
0.00962384
0.0126164
0.0172866
1.55911e-06
0.00366727
0.00357176
0.0029341
0.00407885
0.00321332
0.00269281
0.00317699
0.00215426
0.00328242
0.00383605
0.00453904
0.00485465
0.00540527
0.00632044
0.00709574
0.00887313
0.00958421
0.0126796
0.0167813
6.28525e-06
0.00366889
0.00357361
0.00293229
0.00407492
0.00320882
0.0027014
0.00316355
0.00218498
0.0032798
0.00382931
0.00453986
0.00485072
0.00539956
0.00632482
0.00707281
0.00887956
0.00954132
0.0127117
0.0163324
1.40504e-05
0.00366922
0.00357373
0.00293002
0.00407025
0.0032042
0.00270821
0.00314859
0.00222108
0.00327617
0.0038219
0.00453992
0.00484687
0.00539242
0.00632997
0.00704923
0.00888258
0.00949632
0.0127105
0.0159155
2.46954e-05
0.00366789
0.00357203
0.00292771
0.00406525
0.00319905
0.00271366
0.00313288
0.00226129
0.00327236
0.00381434
0.00453935
0.00484335
0.00538366
0.00633529
0.00702475
0.00887992
0.00945049
0.0126708
0.0155235
3.77578e-05
0.00366487
0.00356868
0.0029257
0.00406025
0.00319303
0.00271835
0.00311688
0.00230451
0.00326912
0.00380677
0.00453812
0.00484004
0.00537295
0.00633984
0.00699957
0.00887014
0.00940417
0.0125918
0.015152
5.27052e-05
0.00366036
0.00356406
0.00292405
0.00405537
0.00318601
0.00272291
0.00310073
0.00234985
0.00326682
0.00379926
0.00453616
0.00483678
0.00536027
0.00634267
0.00697425
0.00885172
0.00935741
0.0124744
0.0147971
6.91033e-05
0.00365469
0.00355856
0.00292268
0.00405065
0.00317806
0.00272777
0.00308451
0.00239659
0.00326562
0.00379187
0.00453348
0.00483348
0.0053458
0.006343
0.00694937
0.008823
0.00930995
0.0123209
0.0144537
8.6664e-05
0.00364815
0.00355244
0.00292145
0.00404613
0.00316928
0.00273316
0.00306824
0.00244416
0.00326559
0.00378453
0.0045302
0.00482993
0.00532989
0.00634014
0.00692523
0.00878252
0.00926114
0.0121349
0.0141159
0.000105221
0.00364091
0.00354588
0.00292023
0.0040418
0.00315977
0.00273917
0.00305195
0.00249214
0.00326673
0.00377717
0.00452643
0.00482583
0.00531304
0.00633326
0.0069021
0.0087295
0.00920969
0.0119194
0.0137777
0.000124691
0.00363308
0.00353901
0.00291895
0.00403766
0.00314956
0.00274575
0.00303567
0.00254015
0.00326906
0.00376964
0.00452227
0.00482076
0.00529578
0.00632169
0.00687991
0.00866374
0.00915351
0.0116739
0.0134343
0.000145035
0.0036247
0.00353192
0.00291755
0.00403369
0.00313866
0.0027528
0.00301946
0.00258787
0.00327261
0.00376167
0.00451794
0.0048142
0.0052785
0.00630511
0.00685809
0.00858583
0.00908944
0.0114129
0.0130834
0.00016625
0.00361577
0.00352469
0.00291595
0.0040299
0.00312707
0.00276021
0.00300343
0.00263496
0.00327749
0.00375294
0.00451371
0.00480568
0.00526128
0.00628343
0.00683561
0.00849718
0.00901388
0.0111383
0.0127253
0.000188355
0.00360624
0.0035174
0.0029141
0.00402631
0.00311479
0.00276782
0.00298776
0.00268107
0.00328384
0.00374305
0.00450992
0.00479494
0.00524402
0.00625677
0.00681077
0.00839934
0.00892444
0.0108515
0.0123605
0.000211399
0.003596
0.00351014
0.00291194
0.00402294
0.00310184
0.00277549
0.00297264
0.00272583
0.00329191
0.00373162
0.00450678
0.00478183
0.00522638
0.00622562
0.00678126
0.00829341
0.00881974
0.0105548
0.0119895
0.000235452
0.00358494
0.00350299
0.00290941
0.00401984
0.00308823
0.00278306
0.00295834
0.0027688
0.00330203
0.00371824
0.00450435
0.00476632
0.00520767
0.00619102
0.00674432
0.00817959
0.00870036
0.0102491
0.011613
0.000260605
0.00357288
0.003496
0.00290645
0.00401707
0.00307401
0.00279031
0.0029452
0.00280954
0.00331453
0.00370257
0.00450253
0.00474864
0.00518674
0.00615442
0.00669737
0.00805694
0.00856843
0.00993367
0.0112313
0.000286971
0.00355962
0.00348928
0.00290301
0.00401465
0.00305928
0.00279699
0.00293357
0.00284753
0.00332973
0.00368448
0.00450095
0.00472957
0.00516204
0.00611682
0.0066397
0.00792375
0.00842632
0.00961107
0.0108439
0.000314681
0.00354494
0.0034829
0.00289904
0.00401259
0.00304417
0.00280278
0.00292382
0.00288217
0.00334793
0.0036641
0.00449886
0.00471021
0.00513152
0.00607825
0.00657105
0.00777755
0.00827657
0.00928427
0.0104486
0.000343883
0.00352859
0.00347735
0.00289451
0.00401092
0.00302885
0.00280734
0.00291643
0.00291291
0.00336923
0.00364166
0.00449528
0.00469177
0.00509333
0.00603799
0.00649287
0.0076159
0.00811574
0.00895756
0.0100435
0.000374738
0.00351029
0.00347185
0.0028894
0.00400958
0.00301357
0.00281021
0.00291194
0.00293931
0.00339351
0.0036177
0.00448904
0.0046755
0.0050463
0.00599435
0.00640725
0.0074373
0.00795376
0.00863621
0.00962817
0.000407427
0.00348976
0.00346683
0.00288373
0.00400849
0.00299866
0.00281089
0.00291083
0.00296113
0.00342035
0.00359317
0.00447843
0.00466244
0.00499002
0.00594449
0.00631153
0.00724188
0.00778145
0.00832525
0.0092044
0.000442143
0.00346667
0.00346231
0.00287757
0.00400748
0.00298456
0.00280878
0.00291345
0.00297827
0.00344907
0.00356945
0.00446144
0.00465298
0.00492513
0.00588528
0.00622416
0.00703151
0.00759505
0.00802838
0.00877637
0.000479088
0.00344072
0.00345828
0.00287101
0.00400636
0.0029718
0.00280332
0.00292
0.00299088
0.00347868
0.00354814
0.00443645
0.00464666
0.00485304
0.00581347
0.00613723
0.00680965
0.00739056
0.00774694
0.00835117
0.000518475
0.00341162
0.0034547
0.00286417
0.00400479
0.00296108
0.0027939
0.00293044
0.00299949
0.00350775
0.00353079
0.00440239
0.0046423
0.00477571
0.00572589
0.00605012
0.00658121
0.00716462
0.00747924
0.00793712
0.000560521
0.00337906
0.00345144
0.00285735
0.00400236
0.00295311
0.00278008
0.00294453
0.00300495
0.00353456
0.00351855
0.00435876
0.00463792
0.00469526
0.00562008
0.00596142
0.00635197
0.0069162
0.00722055
0.00754217
0.000605446
0.00334281
0.00344827
0.00285084
0.0039986
0.00294859
0.00276154
0.00296186
0.0030084
0.00355728
0.00351193
0.00430556
0.0046307
0.00461427
0.00549517
0.00586798
0.00612771
0.00664673
0.00696363
0.00717283
0.000653465
0.00330272
0.00344486
0.00284491
0.00399295
0.00294828
0.00273827
0.0029815
0.00301119
0.00357435
0.003511
0.00424338
0.00461715
0.00453531
0.00535226
0.00576596
0.00591282
0.00635988
0.00669968
0.00683177
0.000704772
0.00325875
0.00344068
0.00283998
0.00398485
0.00295274
0.00271059
0.00300216
0.00301477
0.00358434
0.00351544
0.00417356
0.0045936
0.00446003
0.00519416
0.00565091
0.00570936
0.00606223
0.00642137
0.00651626
0.000759526
0.00321098
0.00343504
0.00283655
0.00397387
0.00296237
0.00267905
0.00302251
0.00302069
0.00358596
0.00352399
0.00409783
0.00455681
0.00438918
0.00502465
0.00551879
0.00551706
0.00576173
0.00612519
0.00621881
0.000817858
0.00315961
0.00342713
0.00283497
0.00395974
0.00297735
0.00264451
0.00304089
0.00303008
0.00357856
0.00353469
0.00401832
0.00450434
0.00432215
0.00484872
0.00536733
0.00533284
0.00546597
0.00581236
0.00592848
0.000879842
0.0031051
0.00341604
0.0028354
0.00394238
0.00299756
0.00260811
0.00305561
0.00304372
0.0035619
0.00354484
0.00393754
0.00443513
0.00425729
0.00467146
0.00519612
0.00515149
0.00518079
0.00548811
0.00563414
0.000945471
0.00304813
0.00340071
0.0028378
0.00392192
0.00302264
0.00257122
0.00306516
0.00306197
0.00353619
0.00355118
0.00385755
0.00434955
0.00419206
0.00449686
0.00500678
0.0049675
0.00490848
0.00516012
0.0053298
0.00101467
0.00298953
0.0033802
0.00284201
0.00389861
0.00305182
0.0025354
0.00306825
0.00308439
0.00350262
0.0035505
0.00377973
0.00424919
0.00412301
0.00432784
0.00480261
0.00477621
0.00464787
0.00483578
0.00501687
0.0010873
0.00293011
0.00335364
0.00284763
0.00387288
0.00308412
0.00250207
0.00306405
0.00311001
0.00346299
0.00354011
0.00370465
0.00413638
0.00404692
0.00416598
0.00458725
0.00457522
0.00439564
0.00451818
0.0047006
0.00116307
0.0028706
0.00332042
0.00285406
0.00384527
0.00311837
0.00247238
0.00305209
0.00313719
0.0034195
0.00351857
0.00363208
0.00401346
0.00396083
0.00401164
0.0043652
0.00436343
0.00414828
0.00420721
0.00438514
0.00124157
0.0028127
0.00328018
0.00286055
0.00381631
0.00315337
0.00244712
0.00303225
0.00316369
0.00337402
0.00348575
0.00356177
0.00388325
0.00386158
0.00386328
0.0041418
0.00414053
0.00390298
0.00390388
0.00407224
0.0013223
0.00275727
0.00323284
0.00286611
0.00378655
0.0031881
0.00242678
0.00300479
0.00318751
0.00332755
0.00344169
0.00349359
0.00374875
0.00374662
0.00371761
0.0039222
0.00390878
0.00365681
0.00360847
0.00376266
0.00140452
0.00270534
0.00317879
0.0028694
0.00375643
0.00322154
0.00241138
0.00297038
0.00320703
0.00328068
0.00338668
0.00342698
0.0036127
0.00361504
0.00357018
0.00370924
0.00367337
0.00340805
0.00331867
0.00345703
0.00148719
0.00265821
0.00311893
0.0028689
0.00372638
0.00325277
0.00240016
0.00293006
0.00322147
0.00323366
0.00332045
0.00336049
0.0034794
0.0034687
0.00341501
0.00350171
0.00344052
0.00315958
0.00303166
0.00315459
0.00156915
0.002617
0.00305468
0.00286292
0.00369657
0.00328119
0.00239179
0.00288444
0.00323079
0.00318689
0.00324201
0.00329163
0.00335354
0.00331147
0.00324727
0.00329583
0.00321367
0.00291684
0.00274753
0.00285274
0.00164921
0.00258264
0.00298785
0.00284974
0.00366664
0.00330593
0.00238497
0.00283351
0.00323525
0.00314149
0.00315058
0.00321701
0.0032382
0.00314927
0.00306505
0.00308596
0.00299162
0.00268485
0.00247158
0.00255011
0.00172617
0.0025558
0.00292049
0.00282771
0.00363589
0.00332952
0.00237843
0.0027763
0.00323544
0.00309927
0.00304606
0.00313135
0.00313357
0.00299055
0.00286982
0.00286643
0.00277019
0.00246492
0.00221122
0.00224973
0.00179908
0.00253662
0.00285487
0.00279581
0.00360315
0.00335449
0.0023714
0.00271005
0.00323204
0.00306509
0.00293041
0.00302761
0.00303665
0.0028439
0.00266673
0.00263341
0.00254358
0.00225383
0.00197275
0.00196061
0.00186718
0.00252464
0.00279344
0.00275372
0.00356621
0.00338085
0.00236387
0.00263164
0.00322214
0.00304482
0.00280824
0.00289998
0.0029407
0.0027146
0.00246534
0.00238719
0.00230554
0.00204528
0.00175551
0.00169378
0.00192987
0.00251889
0.00273874
0.00270167
0.0035218
0.00340933
0.0023578
0.00253847
0.00320054
0.00304125
0.00268897
0.00274643
0.00283435
0.00260277
0.00227791
0.00213314
0.00205162
0.00183131
0.00155257
0.00145483
0.0019869
0.00251793
0.00269287
0.00264117
0.00346576
0.00343963
0.00235786
0.0024294
0.00315861
0.00305394
0.00258653
0.00256981
0.00270459
0.00250311
0.00211316
0.00188115
0.00178197
0.00160538
0.00135643
0.00124003
0.00203822
0.00252016
0.00265713
0.0025753
0.00339412
0.00346904
0.00237052
0.00230638
0.00308698
0.00307735
0.00251247
0.0023796
0.00254246
0.00240349
0.00197406
0.00164502
0.00150253
0.00136205
0.00115957
0.00104276
0.00208402
0.00252385
0.00263202
0.00250785
0.00330455
0.00349235
0.0024013
0.00217548
0.00297797
0.00309945
0.00247272
0.0021933
0.00234788
0.00228736
0.00185727
0.0014364
0.00122363
0.00109993
0.000954527
0.000857278
0.0021247
0.00252735
0.00261708
0.00244323
0.00319657
0.00350192
0.00245358
0.00204813
0.00282762
0.00310226
0.00246814
0.00203025
0.00212723
0.00214137
0.0017517
0.00126009
0.000959798
0.000824405
0.000733829
0.000677622
0.00216082
0.00252929
0.00261048
0.0023853
0.0030713
0.00348979
0.00252534
0.00193931
0.0026373
0.00306648
0.00249151
0.00190441
0.00189527
0.00196137
0.00164065
0.00111225
0.000724379
0.000547589
0.000493541
0.000494938
0.00219314
0.00252836
0.00260995
0.00233681
0.00292603
0.00345076
0.00260581
0.00186144
0.00241828
0.00297672
0.00252432
0.00182314
0.00167343
0.00175234
0.00151007
0.000982477
0.00052097
0.000284587
0.000238663
0.000299556
0.00222247
0.00252359
0.00261227
0.0023013
0.00278282
0.00337981
0.00268264
0.00182085
0.00219485
0.00282998
0.0025391
0.00178556
0.00148137
0.00152525
0.00135547
0.000857931
0.000344508
4.56226e-05
-1.83923e-05
8.63726e-05
0.00224954
0.00251452
0.0026133
0.00228108
0.00263952
0.0032741
0.00274434
0.00181813
0.0019902
0.00263155
0.00251162
0.00177765
0.00133034
0.00129793
0.00117908
0.000731049
0.000188599
-0.000168499
-0.00026531
-0.000140728
0.00227479
0.00250135
0.00260905
0.00227545
0.00250479
0.00313482
0.0027797
0.00186689
0.00181773
0.00239874
0.00242995
0.00177341
0.00122148
0.00108898
0.000987781
0.000598273
4.89706e-05
-0.000361008
-0.000496395
-0.000371648
0.00229805
0.0024851
0.00259689
0.00228266
0.00238516
0.00296826
0.00277746
0.00191229
0.00168522
0.00215652
0.00229517
0.00174908
0.00114546
0.000908926
0.00079382
0.000457942
-7.56719e-05
-0.000531575
-0.000711345
-0.000597686
0.00231872
0.00246701
0.00257594
0.00229467
0.00228518
0.00278666
0.0027318
0.00196079
0.00159598
0.00192524
0.00211627
0.00169112
0.00108259
0.000758025
0.000608526
0.000311913
-0.000188943
-0.000676068
-0.000909027
-0.000816395
0.00233611
0.002448
0.00254615
0.00230082
0.00220613
0.00260473
0.00264394
0.00199378
0.00154442
0.00171989
0.0019121
0.00159716
0.00101812
0.000629231
0.000437327
0.000164992
-0.000296142
-0.000792951
-0.00108246
-0.00102643
0.0023494
0.00242854
0.00250823
0.00229914
0.00214662
0.0024331
0.00252118
0.00199835
0.00151451
0.00154899
0.00170167
0.00146941
0.000942874
0.00051445
0.000279371
2.12439e-05
-0.0004006
-0.000886542
-0.0012225
-0.00122032
0.00235769
0.00240863
0.00246407
0.00228698
0.00209974
0.00227756
0.0023762
0.00196887
0.00149025
0.00141149
0.00150274
0.00131894
0.000851816
0.00040806
0.000132525
-0.000118963
-0.000503129
-0.000965092
-0.00132579
-0.00138582
0.00236027
0.00238776
0.00241608
0.00226306
0.00205805
0.00214
0.00222189
0.00190654
0.00145943
0.00129999
0.00132313
0.00116058
0.000745142
0.000304826
-3.31657e-06
-0.000255458
-0.000603986
-0.00103504
-0.00139863
-0.00151113
0.00235662
0.00236519
0.00236599
0.00222736
0.00201584
0.00202007
0.00206827
0.0018166
0.0014133
0.00120356
0.00116282
0.00100513
0.000630399
0.000202172
-0.000128926
-0.000386718
-0.000702603
-0.00109924
-0.00145067
-0.00159436
0.00234653
0.00233991
0.0023146
0.00218171
0.00196992
0.00191402
0.00192104
0.00170836
0.00134805
0.00111317
0.00102088
0.000856767
0.000514748
0.000103269
-0.000243688
-0.000510499
-0.000797817
-0.00115706
-0.00148834
-0.00164347
0.00232998
0.00231087
0.00226202
0.00212849
0.00191805
0.00181622
0.00178173
0.00159086
0.00126606
0.00101998
0.00089256
0.000718659
0.000401077
1.16301e-05
-0.000342621
-0.000622259
-0.00088748
-0.00120624
-0.0015126
-0.00166636
0.00230702
0.0022774
0.00220804
0.00206974
0.00185953
0.00172247
0.00164971
0.00146857
0.00117131
0.000920571
0.000770531
0.000592164
0.000293239
-7.3069e-05
-0.000421999
-0.000712733
-0.000965532
-0.00124341
-0.00151873
-0.0016641
0.00227785
0.00223917
0.00215207
0.00200691
0.00179505
0.00162986
0.00152336
0.00134358
0.0010668
0.000815089
0.000648898
0.000473181
0.000195588
-0.000148935
-0.000483112
-0.000773528
-0.00102035
-0.00126267
-0.00150038
-0.00163064
0.0022428
0.00219617
0.00209359
0.00194047
0.00172567
0.00153722
0.00140003
0.00121624
0.000954155
0.000703446
0.000525074
0.00035466
0.000106263
-0.000211019
-0.000525985
-0.00080203
-0.00103788
-0.00125105
-0.00144847
-0.00155615
0.00220229
0.00214839
0.00203246
0.00187093
0.00165193
0.00144395
0.00127861
0.00108648
0.000833641
0.000584456
0.000397179
0.000230707
1.56963e-05
-0.000260337
-0.000546679
-0.00079638
-0.00100504
-0.00118566
-0.00134075
-0.00141901
0.00215687
0.00209618
0.0019687
0.00179889
0.00157465
0.00134923
0.00115817
0.000955044
0.000705865
0.000455764
0.000261975
9.83442e-05
-8.8327e-05
-0.000311025
-0.000547422
-0.000752836
-0.000910665
-0.0010355
-0.00113537
-0.00117708
0.00210725
0.00204001
0.00190258
0.0017248
0.00149465
0.00125328
0.00103812
0.000821252
0.000572613
0.000317677
0.000114447
-4.48084e-05
-0.000209396
-0.000382644
-0.000549117
-0.000683236
-0.000754053
-0.000773804
-0.000765852
-0.000738527
0.00205416
0.00198094
0.00183444
0.00164911
0.00141287
0.00115649
0.000918562
0.000685314
0.000434512
0.000174261
-4.4363e-05
-0.000203628
-0.000346857
-0.000476826
-0.000563808
-0.000600168
-0.000550499
-0.0004021
-0.000200192
-7.37322e-06
0.00199853
0.00192022
0.00176525
0.00157236
0.00133053
0.00105999
0.000799677
0.000548371
0.000291787
3.05724e-05
-0.000199262
-0.000365172
-0.000484317
-0.000564489
-0.000551694
-0.000429668
-0.0001945
0.000140371
0.00048091
0.000701096
0.0019418
0.00185887
0.00169638
0.00149563
0.00124835
0.000966214
0.000684637
0.000413076
0.000146242
-0.000113894
-0.000336792
-0.000490043
-0.000560636
-0.000554309
-0.000431895
-0.00017078
0.000175024
0.000552511
0.000879102
0.00104817
0.00188597
0.00179866
0.00162898
0.00142068
0.0011673
0.000875901
0.000578431
0.000290336
9.16752e-06
-0.0002557
-0.000458515
-0.000568709
-0.000560728
-0.000435659
-0.000212115
0.000105384
0.000459203
0.000788219
0.00104116
0.00113915
0.0018328
0.00174188
0.0015654
0.00134947
0.00108996
0.000789705
0.000481543
0.000188424
-8.61693e-05
-0.000352001
-0.000562919
-0.000664644
-0.000614302
-0.000385284
-3.87147e-05
0.000363768
0.000773496
0.00112208
0.001358
0.00140985
0.00178471
0.00169079
0.00150863
0.00128547
0.00102072
0.000712628
0.000393038
9.15124e-05
-0.000159023
-0.000351484
-0.000477942
-0.000512681
-0.000467076
-0.000330924
-0.000107567
0.000185952
0.00053167
0.000864896
0.00111259
0.00119951
0.00174458
0.00164735
0.00146163
0.0012317
0.000963216
0.0006567
0.000336363
2.95307e-05
-0.000240299
-0.000463879
-0.000616752
-0.000635495
-0.000495876
-0.000227746
0.000151002
0.000565736
0.000950024
0.00125367
0.00143141
0.0014321
0.00171264
0.0016104
0.0014203
0.00118338
0.000907302
0.000594053
0.000266533
-4.06732e-05
-0.000296583
-0.000478909
-0.000582587
-0.000579164
-0.000442304
-0.000197928
0.000126489
0.000493737
0.00084467
0.00112905
0.00129283
0.001284
0.0272626
0.0187229
0.00839758
0.0010689
-0.00163779
-0.00142627
-0.000784761
-0.000615244
-0.000877341
-0.00128603
-0.0015834
-0.00171194
-0.00179897
-0.00193879
-0.0021269
-0.00236553
-0.00261605
-0.00281756
-0.00302669
-0.00329135
-0.0035469
-0.0037714
-0.00400832
-0.00424769
-0.00445361
-0.00466596
-0.00493939
-0.00523356
-0.00549015
-0.00573561
-0.00600261
-0.00626637
-0.00651125
-0.00674905
-0.00698079
-0.00721324
-0.00744741
-0.00767522
-0.00790235
-0.0081422
-0.00839466
-0.00864704
-0.00890585
-0.00916979
-0.00942383
-0.00968011
-0.0099495
-0.0102215
-0.0104976
-0.0107836
-0.0110811
-0.0113799
-0.0116752
-0.0119814
-0.0122985
-0.0126207
-0.0129458
-0.0132773
-0.01361
-0.013947
-0.0142996
-0.0146721
-0.0150412
-0.0154007
-0.0157602
-0.0161262
-0.0164989
-0.0168534
-0.0171951
-0.0175711
-0.0179827
-0.018374
-0.0187507
-0.0191408
-0.0195355
-0.0199215
-0.0203194
-0.0207356
-0.0211607
-0.0215912
-0.022026
-0.0224668
-0.0229077
-0.0233542
-0.0238055
-0.0242615
-0.0247253
-0.02519
-0.0256701
-0.0261515
-0.0266451
-0.0271468
-0.0276484
-0.0281736
-0.0286913
-0.0292277
-0.0297787
-0.0303141
-0.0308282
-0.0313517
0.0257476
0.0185236
0.00847582
0.00120616
-0.00154389
-0.00137844
-0.000754985
-0.000594875
-0.000863129
-0.00127572
-0.00157544
-0.00170524
-0.00179296
-0.00193328
-0.00212177
-0.00236082
-0.00261186
-0.0028137
-0.00302304
-0.00328804
-0.00354392
-0.00376862
-0.00400578
-0.00424545
-0.00445155
-0.00466398
-0.00493756
-0.00523195
-0.00548869
-0.00573422
-0.00600133
-0.0062652
-0.00651016
-0.00674804
-0.00697985
-0.00721236
-0.0074466
-0.00767446
-0.00790163
-0.0081415
-0.008394
-0.00864641
-0.00890524
-0.00916922
-0.00942328
-0.00967956
-0.00994897
-0.0102209
-0.0104972
-0.0107831
-0.0110806
-0.0113795
-0.0116748
-0.011981
-0.0122981
-0.0126203
-0.0129455
-0.013277
-0.0136097
-0.0139467
-0.0142993
-0.0146718
-0.015041
-0.0154005
-0.01576
-0.016126
-0.0164987
-0.0168533
-0.0171949
-0.017571
-0.0179826
-0.0183739
-0.0187506
-0.0191407
-0.0195354
-0.0199214
-0.0203193
-0.0207355
-0.0211607
-0.0215912
-0.022026
-0.0224667
-0.0229077
-0.0233541
-0.0238055
-0.0242614
-0.0247253
-0.02519
-0.0256701
-0.0261515
-0.0266451
-0.0271468
-0.0276484
-0.0281736
-0.0286913
-0.0292277
-0.0297787
-0.0303141
-0.0308282
-0.0313517
0.0245602
0.0184059
0.00867355
0.00147438
-0.00138001
-0.00131677
-0.00072733
-0.000573433
-0.000844832
-0.00126087
-0.00156386
-0.00169645
-0.00178632
-0.001928
-0.00211709
-0.00235647
-0.00260793
-0.0028101
-0.00301973
-0.00328509
-0.0035412
-0.00376602
-0.00400339
-0.00424333
-0.0044496
-0.00466213
-0.00493589
-0.00523049
-0.00548734
-0.00573295
-0.00600019
-0.00626416
-0.00650919
-0.00674713
-0.00697901
-0.00721157
-0.00744588
-0.00767378
-0.00790098
-0.00814089
-0.00839343
-0.00864587
-0.00890471
-0.00916873
-0.0094228
-0.00967909
-0.00994852
-0.0102205
-0.0104967
-0.0107827
-0.0110802
-0.0113791
-0.0116744
-0.0119807
-0.0122978
-0.01262
-0.0129452
-0.0132767
-0.0136095
-0.0139464
-0.0142991
-0.0146716
-0.0150408
-0.0154003
-0.0157598
-0.0161258
-0.0164985
-0.0168531
-0.0171948
-0.0175708
-0.0179825
-0.0183738
-0.0187505
-0.0191406
-0.0195354
-0.0199214
-0.0203192
-0.0207355
-0.0211606
-0.0215911
-0.0220259
-0.0224667
-0.0229077
-0.0233541
-0.0238055
-0.0242614
-0.0247252
-0.02519
-0.0256701
-0.0261514
-0.0266451
-0.0271468
-0.0276484
-0.0281736
-0.0286913
-0.0292277
-0.0297787
-0.0303141
-0.0308282
-0.0313517
0.0234796
0.0182526
0.00890034
0.00179583
-0.00116774
-0.00123572
-0.000690407
-0.000542537
-0.000817051
-0.00123743
-0.0015451
-0.00168268
-0.00177701
-0.00192158
-0.00211178
-0.00235132
-0.00260302
-0.00280575
-0.00301602
-0.00328186
-0.00353816
-0.00376302
-0.0040005
-0.00424069
-0.00444722
-0.00465995
-0.0049339
-0.0052287
-0.0054857
-0.00573147
-0.00599888
-0.00626296
-0.00650805
-0.00674608
-0.00697804
-0.00721067
-0.00744506
-0.00767302
-0.00790027
-0.00814023
-0.00839282
-0.00864529
-0.00890417
-0.00916822
-0.00942232
-0.00967861
-0.00994807
-0.0102201
-0.0104963
-0.0107823
-0.0110798
-0.0113787
-0.011674
-0.0119803
-0.0122974
-0.0126196
-0.0129449
-0.0132764
-0.0136092
-0.0139461
-0.0142988
-0.0146714
-0.0150405
-0.0154001
-0.0157596
-0.0161257
-0.0164984
-0.016853
-0.0171946
-0.0175707
-0.0179824
-0.0183737
-0.0187504
-0.0191405
-0.0195353
-0.0199213
-0.0203192
-0.0207354
-0.0211606
-0.0215911
-0.0220259
-0.0224667
-0.0229076
-0.0233541
-0.0238054
-0.0242614
-0.0247252
-0.02519
-0.0256701
-0.0261514
-0.0266451
-0.0271468
-0.0276484
-0.0281736
-0.0286912
-0.0292277
-0.0297787
-0.0303141
-0.0308283
-0.0313518
0.0223966
0.0180241
0.00911728
0.00212721
-0.000940046
-0.00114644
-0.000649711
-0.000505711
-0.000781075
-0.00120508
-0.00151803
-0.00166256
-0.0017638
-0.0019132
-0.00210532
-0.00234475
-0.00259632
-0.00279991
-0.00301133
-0.00327787
-0.00353447
-0.00375939
-0.00399685
-0.00423721
-0.00444418
-0.00465725
-0.00493129
-0.00522616
-0.0054834
-0.00572949
-0.00599714
-0.00626134
-0.00650653
-0.00674471
-0.00697679
-0.0072095
-0.00744398
-0.00767204
-0.00789938
-0.00813943
-0.0083921
-0.00864462
-0.00890353
-0.00916765
-0.00942178
-0.00967809
-0.00994757
-0.0102196
-0.0104958
-0.0107818
-0.0110794
-0.0113783
-0.0116736
-0.0119799
-0.012297
-0.0126192
-0.0129445
-0.0132761
-0.0136088
-0.0139458
-0.0142985
-0.0146711
-0.0150403
-0.0153998
-0.0157594
-0.0161254
-0.0164982
-0.0168528
-0.0171944
-0.0175705
-0.0179822
-0.0183736
-0.0187503
-0.0191404
-0.0195352
-0.0199212
-0.0203191
-0.0207353
-0.0211605
-0.021591
-0.0220258
-0.0224666
-0.0229076
-0.0233541
-0.0238054
-0.0242614
-0.0247252
-0.02519
-0.02567
-0.0261514
-0.0266451
-0.0271468
-0.0276484
-0.0281736
-0.0286912
-0.0292277
-0.0297787
-0.0303141
-0.0308283
-0.031352
0.0213197
0.0177311
0.00932474
0.00246223
-0.000704271
-0.00105288
-0.000609428
-0.000467892
-0.000741318
-0.00116752
-0.00148554
-0.0016379
-0.00174758
-0.00190318
-0.00209783
-0.00233676
-0.00258765
-0.00279229
-0.00300528
-0.00327269
-0.00352979
-0.00375497
-0.00399231
-0.00423281
-0.00444053
-0.00465416
-0.00492805
-0.00522269
-0.0054802
-0.0057268
-0.00599473
-0.00625904
-0.00650439
-0.00674282
-0.0069751
-0.00720793
-0.00744251
-0.00767071
-0.00789821
-0.0081384
-0.0083912
-0.0086438
-0.00890277
-0.00916695
-0.00942115
-0.00967752
-0.00994703
-0.0102191
-0.0104953
-0.0107813
-0.0110788
-0.0113778
-0.0116731
-0.0119795
-0.0122966
-0.0126188
-0.012944
-0.0132756
-0.0136084
-0.0139454
-0.0142981
-0.0146707
-0.0150399
-0.0153995
-0.0157591
-0.0161252
-0.0164979
-0.0168525
-0.0171942
-0.0175703
-0.017982
-0.0183734
-0.0187501
-0.0191403
-0.019535
-0.0199211
-0.020319
-0.0207352
-0.0211604
-0.021591
-0.0220258
-0.0224666
-0.0229075
-0.023354
-0.0238054
-0.0242613
-0.0247252
-0.0251899
-0.02567
-0.0261514
-0.0266451
-0.0271467
-0.0276483
-0.0281736
-0.0286912
-0.0292277
-0.0297787
-0.0303142
-0.0308284
-0.0313522
0.0202661
0.0173872
0.0095227
0.00279924
-0.000461569
-0.000955162
-0.000570303
-0.000430748
-0.000699764
-0.00112711
-0.00145016
-0.00161084
-0.00172975
-0.00189231
-0.00208979
-0.00232783
-0.0025775
-0.00278313
-0.00299786
-0.00326619
-0.00352394
-0.00374962
-0.00398686
-0.00422754
-0.0044364
-0.00465088
-0.00492438
-0.00521842
-0.00547617
-0.00572335
-0.00599153
-0.00625589
-0.00650145
-0.00674023
-0.00697284
-0.00720586
-0.00744058
-0.00766897
-0.00789669
-0.00813705
-0.00839
-0.00864273
-0.00890179
-0.00916608
-0.0094204
-0.00967685
-0.0099464
-0.0102185
-0.0104947
-0.0107808
-0.0110783
-0.0113772
-0.0116726
-0.011979
-0.0122961
-0.0126182
-0.0129435
-0.0132751
-0.0136079
-0.013945
-0.0142976
-0.0146702
-0.0150395
-0.0153991
-0.0157587
-0.0161248
-0.0164975
-0.0168522
-0.0171939
-0.01757
-0.0179818
-0.0183732
-0.0187499
-0.0191401
-0.0195348
-0.0199209
-0.0203188
-0.0207351
-0.0211603
-0.0215908
-0.0220257
-0.0224665
-0.0229075
-0.0233539
-0.0238053
-0.0242613
-0.0247251
-0.0251899
-0.02567
-0.0261514
-0.026645
-0.0271467
-0.0276483
-0.0281735
-0.0286912
-0.0292277
-0.0297787
-0.0303142
-0.0308285
-0.0313524
0.0192481
0.0169964
0.00970436
0.0031351
-0.000212267
-0.000852284
-0.000531896
-0.000394751
-0.000657116
-0.00108467
-0.00141291
-0.00158235
-0.00171097
-0.00188094
-0.00208149
-0.00231848
-0.00256656
-0.002773
-0.00298944
-0.00325862
-0.00351705
-0.00374335
-0.00398055
-0.00422154
-0.0044319
-0.00464756
-0.00492055
-0.0052137
-0.0054716
-0.00571934
-0.00598762
-0.00625188
-0.00649761
-0.00673684
-0.00696989
-0.00720318
-0.00743812
-0.0076668
-0.00789481
-0.00813536
-0.00838846
-0.00864133
-0.00890051
-0.00916495
-0.00941947
-0.00967607
-0.00994566
-0.0102177
-0.0104941
-0.0107801
-0.0110776
-0.0113766
-0.011672
-0.0119784
-0.0122955
-0.0126176
-0.0129428
-0.0132744
-0.0136073
-0.0139444
-0.0142971
-0.0146696
-0.0150388
-0.0153986
-0.0157583
-0.0161243
-0.016497
-0.0168517
-0.0171934
-0.0175695
-0.0179814
-0.0183728
-0.0187496
-0.0191398
-0.0195346
-0.0199206
-0.0203185
-0.0207348
-0.0211601
-0.0215907
-0.0220255
-0.0224663
-0.0229073
-0.0233538
-0.0238052
-0.0242612
-0.0247251
-0.0251898
-0.0256699
-0.0261513
-0.026645
-0.0271467
-0.0276483
-0.0281735
-0.0286912
-0.0292276
-0.0297787
-0.0303142
-0.0308287
-0.0313528
0.0182743
0.0165594
0.00986141
0.00346761
4.49059e-05
-0.000742122
-0.000493205
-0.000360272
-0.000614003
-0.00104063
-0.00137418
-0.00155275
-0.00169141
-0.00186909
-0.002073
-0.00230901
-0.00255533
-0.0027624
-0.00298046
-0.00325039
-0.00350945
-0.00373638
-0.00397358
-0.00421498
-0.0044271
-0.00464419
-0.00491668
-0.00520881
-0.00546682
-0.00571508
-0.00598326
-0.00624721
-0.00649301
-0.00673268
-0.00696623
-0.00719988
-0.00743512
-0.00766422
-0.00789262
-0.00813339
-0.00838661
-0.0086396
-0.00889886
-0.00916347
-0.00941829
-0.00967512
-0.00994477
-0.0102169
-0.0104933
-0.0107794
-0.0110768
-0.0113758
-0.0116713
-0.0119778
-0.0122948
-0.0126169
-0.012942
-0.0132735
-0.0136065
-0.0139437
-0.0142963
-0.0146687
-0.015038
-0.0153979
-0.0157577
-0.0161237
-0.0164963
-0.016851
-0.0171928
-0.017569
-0.0179808
-0.0183723
-0.0187491
-0.0191394
-0.0195342
-0.0199202
-0.0203182
-0.0207345
-0.0211598
-0.0215904
-0.0220253
-0.0224661
-0.0229072
-0.0233537
-0.0238051
-0.0242611
-0.0247249
-0.0251897
-0.0256698
-0.0261512
-0.0266449
-0.0271466
-0.0276482
-0.0281735
-0.0286912
-0.0292276
-0.0297787
-0.0303142
-0.0308289
-0.0313532
0.0173497
0.0160788
0.00998748
0.00379598
0.000311827
-0.000622492
-0.000453468
-0.000328044
-0.000571352
-0.00099542
-0.00133413
-0.00152208
-0.00167098
-0.00185664
-0.00206422
-0.00229946
-0.00254403
-0.00275165
-0.00297125
-0.00324184
-0.00350144
-0.00372898
-0.00396619
-0.00420803
-0.00442203
-0.00464069
-0.00491275
-0.00520384
-0.00546198
-0.00571075
-0.0059787
-0.00624215
-0.00648788
-0.00672793
-0.00696197
-0.00719599
-0.0074316
-0.00766126
-0.0078902
-0.00813124
-0.00838455
-0.00863758
-0.00889686
-0.00916162
-0.00941681
-0.00967396
-0.00994372
-0.0102159
-0.0104924
-0.0107785
-0.0110759
-0.0113748
-0.0116705
-0.0119771
-0.0122941
-0.0126161
-0.012941
-0.0132725
-0.0136056
-0.0139428
-0.0142954
-0.0146676
-0.0150368
-0.0153969
-0.0157569
-0.0161229
-0.0164954
-0.0168501
-0.0171921
-0.0175683
-0.0179801
-0.0183717
-0.0187486
-0.0191389
-0.0195336
-0.0199197
-0.0203177
-0.0207341
-0.0211594
-0.02159
-0.022025
-0.0224659
-0.0229069
-0.0233534
-0.0238049
-0.0242609
-0.0247248
-0.0251896
-0.0256697
-0.0261511
-0.0266448
-0.0271466
-0.0276481
-0.0281734
-0.0286911
-0.0292275