/*--------------------------------*- C++ -*----------------------------------*\
| =========                 |                                                 |
| \\      /  F ield         | OpenFOAM: The Open Source CFD Toolbox           |
|  \\    /   O peration     | Version:  2106                                  |
|   \\  /    A nd           | Website:  www.openfoam.com                      |
|    \\/     M anipulation  |                                                 |
\*---------------------------------------------------------------------------*/
FoamFile
{
    version     2.0;
    format      ascii;
    arch        "LSB;label=32;scalar=64";
    class       volVectorField;
    location    "0.77";
    object      U;
}
// * * * * * * * * * * * * * * * * * * * * * * * * * * * * * * * * * * * * * //

dimensions      [0 1 -1 0 0 0 0];

internalField   nonuniform List<vector> 
9600
(
(0.85457 -0.00825808 0)
(1.13272 0.00831465 0)
(0.892267 -0.00109497 0)
(1.13971 -0.000425438 0)
(0.916791 0.00308752 0)
(1.11294 -0.00455931 0)
(0.910661 0.000204971 0)
(1.15665 -0.0102926 0)
(0.879609 -0.000798149 0)
(1.16265 0.00467173 0)
(0.881907 0.00214363 0)
(1.12007 0.00564941 0)
(0.910121 0.00219872 0)
(1.09494 0.00388985 0)
(0.912716 0.000441569 0)
(1.09182 -0.00367775 0)
(0.911719 0.00275717 0)
(1.09985 -0.0101999 0)
(0.888232 4.02524e-05 0)
(1.10797 -0.0154015 0)
(0.866489 -0.00825489 0)
(1.12635 0.00821297 0)
(0.910136 -0.00127057 0)
(1.12901 -0.000469528 0)
(0.933992 0.00315337 0)
(1.09837 -0.00425613 0)
(0.928399 -0.000666389 0)
(1.13484 -0.00969157 0)
(0.899633 -0.0011683 0)
(1.13811 0.00483651 0)
(0.913714 0.00262622 0)
(1.09038 0.00540858 0)
(0.948056 0.00251217 0)
(1.05797 0.00397066 0)
(0.963937 0.000399794 0)
(1.03882 -0.00367622 0)
(0.979563 0.00249509 0)
(1.02367 -0.0100873 0)
(0.984543 0.00011194 0)
(0.997514 -0.0170861 0)
(0.885874 -0.00827179 0)
(1.11194 0.00798499 0)
(0.937404 -0.0013996 0)
(1.10757 -0.000522956 0)
(0.961495 0.00330695 0)
(1.07497 -0.0040788 0)
(0.95633 -0.00112113 0)
(1.10067 -0.0092156 0)
(0.935596 -0.00138474 0)
(1.0985 0.0048274 0)
(0.959474 0.00318086 0)
(1.05309 0.00498794 0)
(0.986728 0.00298436 0)
(1.02718 0.00372959 0)
(0.997853 0.000787154 0)
(1.01219 -0.00395448 0)
(1.00492 0.00273802 0)
(1.00813 -0.00979451 0)
(1.00144 0.000484914 0)
(0.998741 -0.0127436 0)
(0.909345 -0.00830349 0)
(1.09112 0.00765806 0)
(0.964931 -0.00141793 0)
(1.07939 -0.00062133 0)
(0.98822 0.00349497 0)
(1.04902 -0.00394129 0)
(0.983257 -0.00139619 0)
(1.06324 -0.00897016 0)
(0.971216 -0.00142474 0)
(1.06236 0.00456438 0)
(0.995989 0.00369316 0)
(1.03061 0.00468495 0)
(1.00807 0.00331596 0)
(1.01689 0.00357887 0)
(1.01041 0.00107212 0)
(1.00738 -0.0040629 0)
(1.00919 0.00282409 0)
(1.00635 -0.00969423 0)
(1.00209 0.000713765 0)
(0.998231 -0.0113882 0)
(0.933164 -0.00833113 0)
(1.0677 0.00727549 0)
(0.986545 -0.00134281 0)
(1.05105 -0.000753744 0)
(1.00623 0.00368737 0)
(1.02671 -0.00382558 0)
(1.00127 -0.00152511 0)
(1.03133 -0.00885492 0)
(0.994526 -0.00147172 0)
(1.03903 0.00424622 0)
(1.01579 0.00405086 0)
(1.02332 0.00458686 0)
(1.01699 0.00352039 0)
(1.01636 0.00356199 0)
(1.01507 0.00130769 0)
(1.00763 -0.00398293 0)
(1.00943 0.00279425 0)
(1.00486 -0.00931657 0)
(1.00056 0.000758107 0)
(0.995877 -0.010185 0)
(0.954085 -0.00834217 0)
(1.04574 0.00688283 0)
(0.999981 -0.00120817 0)
(1.028 -0.000878448 0)
(1.01367 0.00384919 0)
(1.01125 -0.00373446 0)
(1.00917 -0.00153498 0)
(1.0092 -0.00879999 0)
(1.00422 -0.00164203 0)
(1.02614 0.00394651 0)
(1.02264 0.00421241 0)
(1.02181 0.00459729 0)
(1.0198 0.00367994 0)
(1.01683 0.00358201 0)
(1.01628 0.00156398 0)
(1.00781 -0.00382569 0)
(1.00818 0.00282977 0)
(1.00349 -0.00882536 0)
(0.99821 0.000762537 0)
(0.99392 -0.00875239 0)
(0.970312 -0.00833184 0)
(1.02796 0.0065232 0)
(1.00619 -0.00104896 0)
(1.0124 -0.000963442 0)
(1.01338 0.0039563 0)
(1.00247 -0.00366415 0)
(1.01025 -0.00146303 0)
(0.996599 -0.00876501 0)
(1.00505 -0.00192408 0)
(1.01803 0.00364644 0)
(1.022 0.0042348 0)
(1.01991 0.00462721 0)
(1.01895 0.00382423 0)
(1.0157 0.00362141 0)
(1.01502 0.00182723 0)
(1.00711 -0.00360426 0)
(1.00613 0.00287922 0)
(1.00223 -0.00823369 0)
(0.996084 0.000731348 0)
(0.992405 -0.00727976 0)
(0.981667 -0.00829961 0)
(1.01513 0.00622151 0)
(1.00764 -0.000894332 0)
(1.00341 -0.00100122 0)
(1.00961 0.00400779 0)
(0.998514 -0.00361392 0)
(1.00844 -0.00135069 0)
(0.991059 -0.00872268 0)
(1.00213 -0.0022413 0)
(1.01147 0.00334587 0)
(1.01769 0.00418347 0)
(1.01625 0.00463962 0)
(1.01574 0.00395894 0)
(1.01306 0.00366172 0)
(1.01242 0.00206955 0)
(1.00571 -0.00334744 0)
(1.00403 0.00290038 0)
(1.00116 -0.00758134 0)
(0.994756 0.000659311 0)
(0.991517 -0.00582373 0)
(0.989035 -0.00824692 0)
(1.00658 0.00597931 0)
(1.0067 -0.000761333 0)
(0.998971 -0.00100244 0)
(1.0055 0.00401569 0)
(0.997421 -0.00358439 0)
(1.00621 -0.00122724 0)
(0.989858 -0.00865735 0)
(0.998557 -0.00252319 0)
(1.00576 0.00306603 0)
(1.01214 0.00409378 0)
(1.01156 0.00462887 0)
(1.01152 0.00407141 0)
(1.00975 0.00368186 0)
(1.00948 0.00226889 0)
(1.00407 -0.00308001 0)
(1.00229 0.00286339 0)
(1.00038 -0.00688643 0)
(0.994193 0.000545556 0)
(0.991269 -0.00443589 0)
(0.993616 -0.00817617 0)
(1.00114 0.00578533 0)
(1.00499 -0.000654974 0)
(0.997124 -0.000983809 0)
(1.00242 0.00399078 0)
(0.997758 -0.00357152 0)
(1.00443 -0.00110974 0)
(0.99085 -0.00856235 0)
(0.995574 -0.00272939 0)
(1.0011 0.00282291 0)
(1.00681 0.00398727 0)
(1.00686 0.00459619 0)
(1.00736 0.00414633 0)
(1.00653 0.00367599 0)
(1.00678 0.00240814 0)
(1.00254 -0.0028172 0)
(1.00097 0.00276792 0)
(0.999816 -0.00616932 0)
(0.994108 0.000400472 0)
(0.991431 -0.00314842 0)
(0.99643 -0.00808996 0)
(0.997726 0.00562573 0)
(1.0033 -0.000572959 0)
(0.996552 -0.000960214 0)
(1.00045 0.00394135 0)
(0.99861 -0.00356763 0)
(1.00312 -0.00100646 0)
(0.992628 -0.00843672 0)
(0.993408 -0.00284988 0)
(0.997578 0.00262171 0)
(1.00244 0.00387731 0)
(1.00281 0.00454272 0)
(1.00387 0.00417985 0)
(1.00384 0.00364395 0)
(1.00456 0.00248414 0)
(1.00124 -0.0025587 0)
(0.999977 0.00261895 0)
(0.999371 -0.00544915 0)
(0.994215 0.000241109 0)
(0.991743 -0.00198242 0)
(0.998161 -0.00799049 0)
(0.995591 0.00548822 0)
(1.00195 -0.00051 0)
(0.996524 -0.0009398 0)
(0.999249 0.00387425 0)
(0.999463 -0.00356586 0)
(1.00209 -0.000920266 0)
(0.994396 -0.00828431 0)
(0.991949 -0.00289345 0)
(0.995075 0.00246011 0)
(0.999262 0.00376752 0)
(0.999692 0.0044749 0)
(1.00126 0.00417302 0)
(1.00181 0.00359292 0)
(1.00286 0.00250224 0)
(1.00022 -0.00229478 0)
(0.999216 0.00241846 0)
(0.998978 -0.00474221 0)
(0.994345 7.7991e-05 0)
(0.992037 -0.000958581 0)
(0.999218 -0.00787944 0)
(0.994273 0.00536293 0)
(1.00101 -0.000459742 0)
(0.996686 -0.000925634 0)
(0.998499 0.00379609 0)
(1.00009 -0.00356179 0)
(1.00124 -0.000850342 0)
(0.995785 -0.0081114 0)
(0.991051 -0.00287596 0)
(0.99339 0.00233009 0)
(0.997179 0.00365661 0)
(0.997511 0.00440143 0)
(0.999476 0.00412785 0)
(1.00044 0.00353705 0)
(1.00165 0.00247332 0)
(0.999489 -0.00202989 0)
(0.998644 0.0021961 0)
(0.998629 -0.00406163 0)
(0.994447 -5.1364e-05 0)
(0.992263 -8.5003e-05 0)
(0.999838 -0.00775796 0)
(0.993499 0.00524211 0)
(1.0004 -0.000416201 0)
(0.996885 -0.000917966 0)
(0.998009 0.00371285 0)
(1.00046 -0.00355388 0)
(1.00056 -0.000793254 0)
(0.996703 -0.00792403 0)
(0.990585 -0.00281579 0)
(0.992343 0.00222344 0)
(0.995962 0.00353958 0)
(0.996153 0.00433094 0)
(0.998382 0.00404598 0)
(0.999613 0.00348668 0)
(1.00086 0.00241169 0)
(0.999025 -0.00176175 0)
(0.998242 0.00196868 0)
(0.998343 -0.00342855 0)
(0.994538 -0.000113967 0)
(0.992435 0.000648633 0)
(1.00018 -0.00762686 0)
(0.993091 0.00511976 0)
(1.00005 -0.000374152 0)
(0.997066 -0.000916591 0)
(0.997693 0.00362937 0)
(1.00061 -0.00354241 0)
(1.00005 -0.000745186 0)
(0.99721 -0.00772593 0)
(0.990431 -0.00273105 0)
(0.99178 0.00213543 0)
(0.995353 0.00341122 0)
(0.995428 0.00426878 0)
(0.997796 0.00393169 0)
(0.999185 0.00344159 0)
(1.00037 0.00233204 0)
(0.998774 -0.00149312 0)
(0.99799 0.00176004 0)
(0.998134 -0.00285089 0)
(0.994651 -0.000102731 0)
(0.992595 0.00125205 0)
(1.00035 -0.00748671 0)
(0.992922 0.0049914 0)
(0.999847 -0.000329142 0)
(0.997216 -0.000921824 0)
(0.997501 0.00354876 0)
(1.00063 -0.0035278 0)
(0.999714 -0.000703887 0)
(0.997435 -0.00751814 0)
(0.990478 -0.00263728 0)
(0.991564 0.00206282 0)
(0.995123 0.00326813 0)
(0.995127 0.00421826 0)
(0.997543 0.00379235 0)
(0.999006 0.00340023 0)
(1.0001 0.00224187 0)
(0.998672 -0.00123351 0)
(0.997853 0.00159146 0)
(0.997998 -0.0023223 0)
(0.994805 -3.49599e-05 0)
(0.992772 0.00174032 0)
(1.00042 -0.00733786 0)
(0.992896 0.00485393 0)
(0.99973 -0.000277824 0)
(0.997338 -0.00093427 0)
(0.99739 0.0034727 0)
(1.00059 -0.00351119 0)
(0.999498 -0.000666401 0)
(0.9975 -0.00730189 0)
(0.990639 -0.00254491 0)
(0.991566 0.00200457 0)
(0.9951 0.00310533 0)
(0.995063 0.00417927 0)
(0.997477 0.00363535 0)
(0.998958 0.00336391 0)
(0.999936 0.00215112 0)
(0.998655 -0.00098999 0)
(0.997794 0.00146997 0)
(0.997918 -0.00183684 0)
(0.995002 6.66361e-05 0)
(0.992982 0.002144 0)
(1.00045 -0.00718061 0)
(0.99295 0.00470559 0)
(0.99965 -0.000218203 0)
(0.997441 -0.000954423 0)
(0.997327 0.00340208 0)
(1.00052 -0.00349413 0)
(0.99936 -0.000631034 0)
(0.997495 -0.00707566 0)
(0.990854 -0.00246109 0)
(0.991683 0.00196101 0)
(0.995173 0.00292205 0)
(0.995104 0.00415111 0)
(0.997494 0.00346662 0)
(0.99896 0.00333027 0)
(0.99982 0.00207664 0)
(0.998675 -0.000778711 0)
(0.997779 0.00141295 0)
(0.997875 -0.00137968 0)
(0.995234 0.000192953 0)
(0.993226 0.00248294 0)
(1.00046 -0.00701507 0)
(0.993043 0.00454539 0)
(0.999584 -0.000148941 0)
(0.997532 -0.000982942 0)
(0.997285 0.00333726 0)
(1.00045 -0.00347653 0)
(0.999266 -0.000598766 0)
(0.997468 -0.00683783 0)
(0.991095 -0.00239227 0)
(0.991849 0.00193131 0)
(0.995281 0.00272173 0)
(0.995175 0.00413054 0)
(0.997532 0.00329496 0)
(0.998971 0.00328614 0)
(0.999713 0.00202479 0)
(0.998707 -0.000607069 0)
(0.997789 0.00140007 0)
(0.997851 -0.000948684 0)
(0.99549 0.000323604 0)
(0.993497 0.00277005 0)
(1.00046 -0.0068412 0)
(0.993156 0.00437263 0)
(0.999521 -6.90978e-05 0)
(0.997619 -0.00102031 0)
(0.997251 0.00327819 0)
(1.00039 -0.00345745 0)
(0.999194 -0.000571872 0)
(0.997441 -0.00658748 0)
(0.991349 -0.0023377 0)
(0.992028 0.00192064 0)
(0.995395 0.00250529 0)
(0.995245 0.00410977 0)
(0.997563 0.00313107 0)
(0.998974 0.00321584 0)
(0.999599 0.00201349 0)
(0.998738 -0.000462703 0)
(0.997816 0.00141148 0)
(0.997837 -0.000522338 0)
(0.995759 0.000446009 0)
(0.993791 0.00300155 0)
(1.00047 -0.00665912 0)
(0.993279 0.0041872 0)
(0.999457 2.13994e-05 0)
(0.997705 -0.00106594 0)
(0.997218 0.00322397 0)
(1.00033 -0.00343639 0)
(0.999135 -0.0005511 0)
(0.997418 -0.0063225 0)
(0.991612 -0.00230093 0)
(0.992206 0.00192932 0)
(0.995507 0.00227661 0)
(0.995307 0.00408544 0)
(0.997577 0.00298343 0)
(0.998971 0.00311712 0)
(0.999478 0.00204865 0)
(0.998763 -0.00032857 0)
(0.997858 0.00143733 0)
(0.997827 -8.63097e-05 0)
(0.99603 0.00056451 0)
(0.994106 0.0031724 0)
(1.00047 -0.0064687 0)
(0.99341 0.00398883 0)
(0.999391 0.000122684 0)
(0.997791 -0.00111944 0)
(0.997185 0.00317433 0)
(1.00027 -0.00341242 0)
(0.999083 -0.000536267 0)
(0.997398 -0.00604254 0)
(0.991881 -0.00228402 0)
(0.992379 0.00195156 0)
(0.995616 0.00204288 0)
(0.995363 0.00405213 0)
(0.997577 0.00285706 0)
(0.998966 0.00298861 0)
(0.999351 0.00211297 0)
(0.998782 -0.000196317 0)
(0.997917 0.00145427 0)
(0.997822 0.000349435 0)
(0.996296 0.00069272 0)
(0.99444 0.0032775 0)
(1.00047 -0.00627005 0)
(0.993547 0.00377792 0)
(0.999325 0.000233989 0)
(0.997879 -0.00118057 0)
(0.997152 0.0031284 0)
(1.00021 -0.00338271 0)
(0.999037 -0.000531707 0)
(0.997382 -0.00574413 0)
(0.992157 -0.00228547 0)
(0.992549 0.00198641 0)
(0.995725 0.00181056 0)
(0.995421 0.00399766 0)
(0.997565 0.00276096 0)
(0.998964 0.00282457 0)
(0.999226 0.00219755 0)
(0.998794 -4.84734e-05 0)
(0.997997 0.00144593 0)
(0.997823 0.000773613 0)
(0.99655 0.000848762 0)
(0.994793 0.00330802 0)
(1.00047 -0.00606331 0)
(0.993692 0.0035544 0)
(0.999258 0.000355916 0)
(0.997969 -0.00124829 0)
(0.997119 0.00308402 0)
(1.00016 -0.00334424 0)
(0.998999 -0.000540981 0)
(0.997366 -0.00542531 0)
(0.992438 -0.00230719 0)
(0.992718 0.00202727 0)
(0.995834 0.00158749 0)
(0.995484 0.00391131 0)
(0.997543 0.00271047 0)
(0.998969 0.00263147 0)
(0.99911 0.00229287 0)
(0.998798 0.000126542 0)
(0.998098 0.00141522 0)
(0.997835 0.00116331 0)
(0.996784 0.00104117 0)
(0.99516 0.00327157 0)
(1.00047 -0.00584862 0)
(0.993843 0.00331895 0)
(0.999192 0.000486169 0)
(0.998061 -0.00131939 0)
(0.997089 0.00303926 0)
(1.0001 -0.00329563 0)
(0.99897 -0.000565379 0)
(0.99735 -0.00508896 0)
(0.992724 -0.00234003 0)
(0.992886 0.00207083 0)
(0.995943 0.00138419 0)
(0.995559 0.00378553 0)
(0.997513 0.00270345 0)
(0.998982 0.00242465 0)
(0.999007 0.00237992 0)
(0.99879 0.000332722 0)
(0.998216 0.00137582 0)
(0.997865 0.00150233 0)
(0.996994 0.0012797 0)
(0.995535 0.00319044 0)
(1.00047 -0.00562628 0)
(0.994002 0.00307264 0)
(0.999128 0.000623329 0)
(0.998155 -0.00139406 0)
(0.99706 0.00299366 0)
(1.00004 -0.00323292 0)
(0.998949 -0.000608533 0)
(0.997334 -0.0047344 0)
(0.993015 -0.00238305 0)
(0.993056 0.00210898 0)
(0.99605 0.00121008 0)
(0.995648 0.0036188 0)
(0.997478 0.0027291 0)
(0.999001 0.00221925 0)
(0.998925 0.00244431 0)
(0.998773 0.000573279 0)
(0.998348 0.00133524 0)
(0.997919 0.00177779 0)
(0.997179 0.00156464 0)
(0.995909 0.00309986 0)
(1.00047 -0.00539667 0)
(0.994169 0.00281589 0)
(0.999065 0.000766635 0)
(0.998251 -0.00147057 0)
(0.997035 0.00294336 0)
(0.999986 -0.00315207 0)
(0.998939 -0.000675192 0)
(0.997319 -0.00436237 0)
(0.993309 -0.00243175 0)
(0.993229 0.00213194 0)
(0.996154 0.00107297 0)
(0.995752 0.00341286 0)
(0.99744 0.00278096 0)
(0.999024 0.00202686 0)
(0.998868 0.00247799 0)
(0.998746 0.00084783 0)
(0.998486 0.00129989 0)
(0.998001 0.00197928 0)
(0.997341 0.00186955 0)
(0.99627 0.00302975 0)
(1.00047 -0.0051607 0)
(0.994343 0.0025506 0)
(0.999006 0.000912722 0)
(0.998349 -0.0015424 0)
(0.997014 0.00288202 0)
(0.999925 -0.00305092 0)
(0.998941 -0.000763463 0)
(0.997304 -0.00398021 0)
(0.993606 -0.00248162 0)
(0.993409 0.00213192 0)
(0.996253 0.000976123 0)
(0.995874 0.00317397 0)
(0.997402 0.0028448 0)
(0.999049 0.00186531 0)
(0.99884 0.00247492 0)
(0.998711 0.00114374 0)
(0.998622 0.00129899 0)
(0.998114 0.00211242 0)
(0.997488 0.00217044 0)
(0.996605 0.00300433 0)
(1.00047 -0.00491863 0)
(0.994525 0.00227801 0)
(0.99895 0.00105898 0)
(0.998449 -0.00160861 0)
(0.997 0.00281315 0)
(0.999859 -0.00292676 0)
(0.998953 -0.000870716 0)
(0.99729 -0.00359278 0)
(0.993902 -0.00252576 0)
(0.993596 0.00210124 0)
(0.996347 0.000920114 0)
(0.996012 0.00291532 0)
(0.997369 0.00291312 0)
(0.999071 0.0017547 0)
(0.998844 0.00242713 0)
(0.998676 0.00144377 0)
(0.998749 0.00133526 0)
(0.998256 0.00217928 0)
(0.997629 0.00244639 0)
(0.996906 0.00304336 0)
(1.00047 -0.00467088 0)
(0.994716 0.00199978 0)
(0.998898 0.00119904 0)
(0.99855 -0.00166471 0)
(0.996993 0.00273237 0)
(0.999789 -0.00277649 0)
(0.998978 -0.000995924 0)
(0.99728 -0.0032073 0)
(0.994196 -0.00254553 0)
(0.993794 0.00204046 0)
(0.996434 0.000905671 0)
(0.996166 0.00264191 0)
(0.997346 0.00297188 0)
(0.999088 0.00169883 0)
(0.998878 0.00234569 0)
(0.998646 0.00171894 0)
(0.998859 0.00141313 0)
(0.998424 0.0021958 0)
(0.997779 0.00266676 0)
(0.997169 0.00314169 0)
(1.00046 -0.00441975 0)
(0.994914 0.00171954 0)
(0.99885 0.00132971 0)
(0.998651 -0.00170099 0)
(0.996997 0.00263138 0)
(0.999715 -0.00259729 0)
(0.999013 -0.00113546 0)
(0.997274 -0.00283079 0)
(0.994484 -0.00254453 0)
(0.994003 0.00194144 0)
(0.996515 0.000929544 0)
(0.996334 0.00236617 0)
(0.997338 0.00301042 0)
(0.999096 0.0016953 0)
(0.998938 0.00224017 0)
(0.998631 0.00195443 0)
(0.998951 0.00153955 0)
(0.998608 0.00218828 0)
(0.997946 0.00281962 0)
(0.997398 0.00327669 0)
(1.00046 -0.00416554 0)
(0.995121 0.00143965 0)
(0.998809 0.00144837 0)
(0.998751 -0.00171569 0)
(0.99701 0.0025138 0)
(0.999637 -0.00239677 0)
(0.99906 -0.00128262 0)
(0.997274 -0.00247136 0)
(0.994764 -0.00251464 0)
(0.994225 0.0018061 0)
(0.996591 0.00098349 0)
(0.996511 0.00210372 0)
(0.99735 0.0030222 0)
(0.999094 0.00174182 0)
(0.99902 0.00212647 0)
(0.998636 0.00214463 0)
(0.999025 0.00169977 0)
(0.9988 0.00218032 0)
(0.998138 0.00290735 0)
(0.997605 0.00341412 0)
(1.00046 -0.00390914 0)
(0.995335 0.00116255 0)
(0.998774 0.00154865 0)
(0.99885 -0.00170719 0)
(0.997034 0.00237867 0)
(0.999554 -0.00217885 0)
(0.999117 -0.00142785 0)
(0.997284 -0.00214033 0)
(0.995035 -0.00244416 0)
(0.99446 0.00164321 0)
(0.996663 0.00106017 0)
(0.996694 0.00186792 0)
(0.997385 0.00299879 0)
(0.999084 0.0018259 0)
(0.999115 0.00202268 0)
(0.998667 0.0022694 0)
(0.999085 0.00187665 0)
(0.998988 0.00219161 0)
(0.998353 0.00293604 0)
(0.997803 0.00352232 0)
(1.00046 -0.00365354 0)
(0.995557 0.00089297 0)
(0.998747 0.00162385 0)
(0.998947 -0.00166996 0)
(0.997069 0.00222939 0)
(0.999469 -0.00194621 0)
(0.999184 -0.00156475 0)
(0.997305 -0.00184026 0)
(0.995293 -0.00233785 0)
(0.994709 0.0014536 0)
(0.996735 0.00115226 0)
(0.996879 0.00167365 0)
(0.997444 0.00294073 0)
(0.999068 0.00193333 0)
(0.999216 0.00193368 0)
(0.998726 0.00234131 0)
(0.999139 0.00204972 0)
(0.999166 0.00222802 0)
(0.998587 0.00292399 0)
(0.998007 0.00358155 0)
(1.00045 -0.00339894 0)
(0.995785 0.000634194 0)
(0.998731 0.00167067 0)
(0.999042 -0.00160531 0)
(0.997115 0.0020652 0)
(0.99938 -0.00170412 0)
(0.999258 -0.00168547 0)
(0.99734 -0.0015804 0)
(0.995538 -0.00219513 0)
(0.994971 0.00125031 0)
(0.996812 0.00124263 0)
(0.997062 0.00152577 0)
(0.997529 0.00284757 0)
(0.999049 0.00204841 0)
(0.999317 0.00187514 0)
(0.998812 0.00236879 0)
(0.999194 0.00220308 0)
(0.999327 0.00229047 0)
(0.998827 0.00290093 0)
(0.998227 0.00358371 0)
(1.00045 -0.00314748 0)
(0.996019 0.00038923 0)
(0.998725 0.0016893 0)
(0.999133 -0.00151665 0)
(0.997173 0.00188989 0)
(0.99929 -0.00146034 0)
(0.999336 -0.00178123 0)
(0.99739 -0.00136313 0)
(0.99577 -0.00201905 0)
(0.995245 0.00104543 0)
(0.996898 0.00131831 0)
(0.99724 0.00142715 0)
(0.997638 0.00272502 0)
(0.999033 0.00215521 0)
(0.999411 0.00184838 0)
(0.99892 0.00236003 0)
(0.999258 0.00233187 0)
(0.999475 0.00236337 0)
(0.999066 0.00289166 0)
(0.998461 0.0035531 0)
(1.00044 -0.00290134 0)
(0.996256 0.000161395 0)
(0.998732 0.00168259 0)
(0.999222 -0.00140963 0)
(0.997242 0.00171473 0)
(0.999199 -0.00122181 0)
(0.999418 -0.0018448 0)
(0.997457 -0.00118513 0)
(0.995987 -0.00181489 0)
(0.995527 0.00084833 0)
(0.996997 0.0013721 0)
(0.997412 0.0013716 0)
(0.997767 0.00258568 0)
(0.999026 0.00224553 0)
(0.999498 0.00185019 0)
(0.999047 0.00232936 0)
(0.999333 0.00243408 0)
(0.999613 0.00243214 0)
(0.999298 0.002895 0)
(0.998702 0.00351955 0)
(1.00044 -0.0026616 0)
(0.996496 -4.33966e-05 0)
(0.99875 0.001649 0)
(0.999307 -0.00128929 0)
(0.997321 0.00153905 0)
(0.99911 -0.000993175 0)
(0.999501 -0.00187384 0)
(0.997542 -0.00104451 0)
(0.996192 -0.00158914 0)
(0.995813 0.000679144 0)
(0.997113 0.00140057 0)
(0.997577 0.00134511 0)
(0.997914 0.00243787 0)
(0.999032 0.00231013 0)
(0.999575 0.00188344 0)
(0.999188 0.00228669 0)
(0.999423 0.00250124 0)
(0.999745 0.0025014 0)
(0.999526 0.00289898 0)
(0.998944 0.00348938 0)
(1.00043 -0.00243081 0)
(0.996737 -0.000223719 0)
(0.998782 0.00158921 0)
(0.99939 -0.00115932 0)
(0.99741 0.00136883 0)
(0.999025 -0.000778119 0)
(0.999584 -0.00186939 0)
(0.997646 -0.000932613 0)
(0.996387 -0.00135253 0)
(0.9961 0.000541795 0)
(0.997245 0.00140743 0)
(0.997737 0.00134616 0)
(0.998075 0.00228407 0)
(0.999057 0.00233602 0)
(0.999643 0.00193853 0)
(0.999335 0.00225019 0)
(0.999531 0.00253338 0)
(0.999874 0.00256978 0)
(0.999746 0.00289995 0)
(0.999188 0.0034509 0)
(1.00043 -0.00220973 0)
(0.996976 -0.000376689 0)
(0.998827 0.00150559 0)
(0.999469 -0.00102841 0)
(0.997507 0.00121047 0)
(0.998944 -0.000580303 0)
(0.999664 -0.00183321 0)
(0.997769 -0.000846318 0)
(0.996574 -0.00111423 0)
(0.996383 0.000433309 0)
(0.997396 0.00139486 0)
(0.997889 0.00136468 0)
(0.998244 0.00213369 0)
(0.999105 0.00233081 0)
(0.99971 0.00200673 0)
(0.999483 0.00222989 0)
(0.999655 0.00253316 0)
(1 0.0026162 0)
(0.999957 0.0029001 0)
(0.999431 0.00340497 0)
(1.00042 -0.0020012 0)
(0.997212 -0.00049446 0)
(0.998884 0.00139365 0)
(0.999548 -0.0008993 0)
(0.997611 0.0010632 0)
(0.998869 -0.000402493 0)
(0.999743 -0.00176625 0)
(0.997911 -0.00077554 0)
(0.996755 -0.000883215 0)
(0.99666 0.000354257 0)
(0.997564 0.00136715 0)
(0.998038 0.00139467 0)
(0.998419 0.00199841 0)
(0.999179 0.00229086 0)
(0.999778 0.00206944 0)
(0.999625 0.00223203 0)
(0.99979 0.00252474 0)
(1.00014 0.00263517 0)
(1.00016 0.00289392 0)
(0.999673 0.0033582 0)
(1.00042 -0.00180734 0)
(0.997443 -0.000573504 0)
(0.998952 0.00125685 0)
(0.999625 -0.000777526 0)
(0.997722 0.000931123 0)
(0.998801 -0.000246398 0)
(0.999817 -0.00167415 0)
(0.998069 -0.000709272 0)
(0.996932 -0.000662282 0)
(0.996928 0.000296918 0)
(0.997749 0.00132519 0)
(0.998183 0.00144251 0)
(0.998592 0.00189428 0)
(0.999277 0.00221316 0)
(0.999858 0.00210946 0)
(0.999765 0.00224923 0)
(0.999928 0.00252324 0)
(1.00028 0.00263261 0)
(1.00037 0.00286626 0)
(0.999913 0.00330459 0)
(1.00041 -0.00162805 0)
(0.997664 -0.000616195 0)
(0.999029 0.0011031 0)
(0.999703 -0.000669064 0)
(0.997837 0.000819287 0)
(0.998741 -0.000109029 0)
(0.999888 -0.00156639 0)
(0.998243 -0.000643831 0)
(0.997105 -0.000451813 0)
(0.997185 0.000264888 0)
(0.997952 0.00126333 0)
(0.99833 0.00149848 0)
(0.998756 0.00182291 0)
(0.999393 0.00211445 0)
(0.999954 0.0021218 0)
(0.999905 0.00227056 0)
(1.00007 0.00253071 0)
(1.00041 0.00262901 0)
(1.00057 0.00281872 0)
(1.00016 0.00323658 0)
(1.0004 -0.00146409 0)
(0.997875 -0.000625223 0)
(0.999111 0.000937676 0)
(0.999783 -0.000578183 0)
(0.997956 0.000727778 0)
(0.998686 1.77157e-05 0)
(0.999955 -0.0014501 0)
(0.998431 -0.000577248 0)
(0.997277 -0.000251361 0)
(0.997427 0.000251564 0)
(0.99817 0.00118493 0)
(0.998483 0.00155704 0)
(0.998908 0.00178949 0)
(0.999521 0.00201116 0)
(1.00007 0.00209584 0)
(1.00005 0.00228301 0)
(1.00021 0.00254324 0)
(1.00054 0.00264145 0)
(1.00076 0.00277053 0)
(1.0004 0.00314998 0)
(1.00039 -0.00131705 0)
(0.998072 -0.000605558 0)
(0.999195 0.0007714 0)
(0.999865 -0.000512362 0)
(0.998079 0.000658008 0)
(0.998637 0.000128983 0)
(1.00002 -0.00133326 0)
(0.998632 -0.000512045 0)
(0.997446 -4.97324e-05 0)
(0.997652 0.00025855 0)
(0.998405 0.00108876 0)
(0.998648 0.0015973 0)
(0.999045 0.00180201 0)
(0.999648 0.0019288 0)
(1.00021 0.00203839 0)
(1.00022 0.0022765 0)
(1.00035 0.00255049 0)
(1.00066 0.00266432 0)
(1.00094 0.00273668 0)
(1.00065 0.00304495 0)
(1.00038 -0.00118413 0)
(0.998254 -0.000567799 0)
(0.999278 0.000617583 0)
(0.99995 -0.000474919 0)
(0.998206 0.000606776 0)
(0.998591 0.000234053 0)
(1.00007 -0.00122462 0)
(0.998847 -0.000454739 0)
(0.997616 0.000158318 0)
(0.997852 0.000300433 0)
(0.998648 0.000972073 0)
(0.998835 0.00160523 0)
(0.999174 0.00184335 0)
(0.999765 0.00187667 0)
(1.00035 0.0019579 0)
(1.0004 0.00224086 0)
(1.00051 0.00254733 0)
(1.00078 0.00268729 0)
(1.00109 0.00272805 0)
(1.00089 0.00294123 0)
(1.00037 -0.00106543 0)
(0.998421 -0.00051592 0)
(0.999356 0.000485735 0)
(1.00004 -0.000469386 0)
(0.998338 0.000567843 0)
(0.998547 0.000339494 0)
(1.00012 -0.00111525 0)
(0.999076 -0.000412271 0)
(0.997788 0.000363594 0)
(0.998021 0.000384799 0)
(0.998892 0.000847337 0)
(0.999048 0.00157055 0)
(0.9993 0.00189805 0)
(0.999862 0.00187033 0)
(1.0005 0.00188126 0)
(1.00059 0.0021661 0)
(1.00069 0.00251855 0)
(1.00091 0.00269435 0)
(1.00122 0.00273628 0)
(1.0011 0.00286717 0)
(1.00036 -0.00095855 0)
(0.998573 -0.000458672 0)
(0.999424 0.000383165 0)
(1.00012 -0.000493085 0)
(0.998477 0.000533586 0)
(0.998504 0.000457067 0)
(1.00015 -0.00100572 0)
(0.999319 -0.000399303 0)
(0.997969 0.000559006 0)
(0.998156 0.000524914 0)
(0.999123 0.000740223 0)
(0.999291 0.00147519 0)
(0.99944 0.00194053 0)
(0.999942 0.00190507 0)
(1.00063 0.0018317 0)
(1.0008 0.00207122 0)
(1.00089 0.00245989 0)
(1.00104 0.00268529 0)
(1.00134 0.00274185 0)
(1.00127 0.00282598 0)
(1.00035 -0.000861047 0)
(0.998712 -0.000403051 0)
(0.999481 0.000311874 0)
(1.00021 -0.000534135 0)
(0.998627 0.000486652 0)
(0.998461 0.00059281 0)
(1.00017 -0.0008809 0)
(0.999574 -0.000421352 0)
(0.99817 0.000719395 0)
(0.998258 0.000713709 0)
(0.999323 0.000684082 0)
(0.999557 0.00133235 0)
(0.999606 0.00194254 0)
(1.00001 0.00196639 0)
(1.00074 0.00181808 0)
(1.00101 0.00197852 0)
(1.00111 0.00236517 0)
(1.0012 0.00265207 0)
(1.00146 0.00273465 0)
(1.00142 0.00279458 0)
(1.00033 -0.000771838 0)
(0.998839 -0.000352801 0)
(0.999525 0.000269562 0)
(1.00029 -0.000579872 0)
(0.99879 0.000417938 0)
(0.998424 0.000734037 0)
(1.00016 -0.000722533 0)
(0.999833 -0.000474901 0)
(0.998399 0.000828283 0)
(0.998337 0.000934844 0)
(0.999477 0.000693404 0)
(0.99983 0.00117648 0)
(0.99981 0.00188317 0)
(1.00008 0.00203265 0)
(1.00082 0.00184791 0)
(1.00119 0.00190629 0)
(1.00135 0.00224778 0)
(1.00138 0.00258372 0)
(1.00158 0.00271502 0)
(1.00155 0.00276009 0)
(1.00032 -0.000687289 0)
(0.998955 -0.00031331 0)
(0.999555 0.000255994 0)
(1.00036 -0.000620381 0)
(0.998968 0.000321618 0)
(0.998398 0.000871314 0)
(1.00012 -0.000525816 0)
(1.00009 -0.000545524 0)
(0.998665 0.00086127 0)
(0.998405 0.0011697 0)
(0.999576 0.000783563 0)
(1.00009 0.00104362 0)
(1.00005 0.00176077 0)
(1.00017 0.00206652 0)
(1.00087 0.00190886 0)
(1.00135 0.00186887 0)
(1.00158 0.00213414 0)
(1.00159 0.00248378 0)
(1.00171 0.00267872 0)
(1.00167 0.0027265 0)
(1.0003 -0.000606738 0)
(0.999062 -0.000285502 0)
(0.999572 0.000261104 0)
(1.00042 -0.000639902 0)
(0.99916 0.000198098 0)
(0.998391 0.000983513 0)
(1.00004 -0.000272557 0)
(1.00032 -0.000602021 0)
(0.998973 0.000793601 0)
(0.998486 0.00138145 0)
(0.99962 0.000944965 0)
(1.00031 0.000960807 0)
(1.00032 0.00160607 0)
(1.00029 0.00205038 0)
(1.00091 0.00197588 0)
(1.00146 0.00186992 0)
(1.0018 0.00203786 0)
(1.00182 0.00235705 0)
(1.00187 0.00260808 0)
(1.00178 0.00269024 0)
(1.00028 -0.000527992 0)
(0.999162 -0.000271439 0)
(0.999579 0.000280523 0)
(1.00045 -0.000634591 0)
(0.999362 6.69873e-05 0)
(0.998416 0.00104939 0)
(0.99993 2.82528e-06 0)
(1.0005 -0.00059615 0)
(0.999317 0.000646259 0)
(0.9986 0.00153106 0)
(0.999619 0.00115449 0)
(1.00047 0.000947882 0)
(1.00059 0.00145105 0)
(1.00046 0.0019748 0)
(1.00095 0.00202046 0)
(1.00154 0.00189942 0)
(1.00198 0.00197787 0)
(1.00205 0.00223235 0)
(1.00205 0.00250239 0)
(1.0019 0.00264329 0)
(1.00026 -0.000450183 0)
(0.999258 -0.000271084 0)
(0.99958 0.000310511 0)
(1.00047 -0.000603176 0)
(0.999568 -6.84362e-05 0)
(0.998474 0.00107057 0)
(0.999807 0.000282477 0)
(1.00063 -0.000506657 0)
(0.999679 0.000462265 0)
(0.998771 0.00157524 0)
(0.999593 0.00138699 0)
(1.00057 0.00102126 0)
(1.00085 0.00132662 0)
(1.00067 0.00185785 0)
(1.00102 0.00202407 0)
(1.00159 0.00192705 0)
(1.00212 0.00194461 0)
(1.00226 0.00212938 0)
(1.00226 0.00237302 0)
(1.00203 0.00256773 0)
(1.00024 -0.000374041 0)
(0.999349 -0.000280607 0)
(0.99958 0.000339902 0)
(1.00046 -0.000532534 0)
(0.999774 -0.000210822 0)
(0.998574 0.00103797 0)
(0.999682 0.000558984 0)
(1.0007 -0.000334386 0)
(1.00003 0.000296291 0)
(0.999004 0.00149784 0)
(0.999578 0.00158121 0)
(1.0006 0.00116106 0)
(1.00106 0.00125602 0)
(1.00089 0.00173089 0)
(1.00112 0.00199043 0)
(1.00164 0.00194328 0)
(1.00223 0.00192091 0)
(1.00244 0.00205159 0)
(1.00247 0.00224529 0)
(1.00218 0.00245791 0)
(1.00022 -0.000300174 0)
(0.999438 -0.000295534 0)
(0.999584 0.000361957 0)
(1.00043 -0.000425005 0)
(0.999967 -0.000332321 0)
(0.998718 0.000947016 0)
(0.999576 0.000796701 0)
(1.0007 -0.00011399 0)
(1.00034 0.000186302 0)
(0.99929 0.00134054 0)
(0.999602 0.00169844 0)
(1.00058 0.00133038 0)
(1.00121 0.0012555 0)
(1.00111 0.00161462 0)
(1.00125 0.00192413 0)
(1.00168 0.00194294 0)
(1.00231 0.0018933 0)
(1.00258 0.00198222 0)
(1.00266 0.00213565 0)
(1.00236 0.00232603 0)
(1.0002 -0.000229897 0)
(0.999522 -0.000306746 0)
(0.999599 0.00036607 0)
(1.00038 -0.000290936 0)
(1.00014 -0.000414203 0)
(0.998902 0.000816885 0)
(0.999501 0.000980947 0)
(1.00065 0.000134712 0)
(1.00059 0.000150644 0)
(0.999609 0.00115592 0)
(0.999685 0.00171647 0)
(1.00055 0.00149151 0)
(1.0013 0.00131676 0)
(1.00131 0.00153703 0)
(1.0014 0.00184019 0)
(1.00174 0.0019249 0)
(1.00237 0.00186794 0)
(1.00271 0.00190868 0)
(1.00283 0.0020407 0)
(1.00254 0.00219526 0)
(1.00018 -0.000167407 0)
(0.999602 -0.000306007 0)
(0.999627 0.000349194 0)
(1.00032 -0.000147177 0)
(1.00028 -0.000441972 0)
(0.999118 0.000661437 0)
(0.999472 0.00109698 0)
(1.00057 0.000404928 0)
(1.00078 0.00019701 0)
(0.999932 0.000980972 0)
(0.999827 0.00164881 0)
(1.00053 0.00159966 0)
(1.00134 0.00140065 0)
(1.00147 0.00150653 0)
(1.00155 0.00176331 0)
(1.0018 0.0018898 0)
(1.00241 0.00185291 0)
(1.00281 0.00183908 0)
(1.00297 0.00194372 0)
(1.00271 0.00207947 0)
(1.00017 -0.000112595 0)
(0.999675 -0.000290768 0)
(0.999668 0.000316223 0)
(1.00025 -1.30182e-05 0)
(1.00039 -0.000399426 0)
(0.999352 0.000499672 0)
(0.999497 0.001132 0)
(1.00047 0.000648433 0)
(1.0009 0.000313453 0)
(1.00023 0.000846497 0)
(1.00002 0.0015374 0)
(1.00054 0.00164331 0)
(1.00136 0.00147527 0)
(1.00159 0.00150245 0)
(1.0017 0.0017021 0)
(1.00188 0.0018374 0)
(1.00243 0.00183027 0)
(1.00287 0.00178411 0)
(1.0031 0.00183361 0)
(1.00286 0.00196665 0)
(1.00015 -6.58616e-05 0)
(0.999739 -0.000262209 0)
(0.999721 0.000276159 0)
(1.00019 0.000106699 0)
(1.00046 -0.000303918 0)
(0.999583 0.00036653 0)
(0.999575 0.00109714 0)
(1.00039 0.000840605 0)
(1.00095 0.000465932 0)
(1.00049 0.000776549 0)
(1.00024 0.00140068 0)
(1.00059 0.0016314 0)
(1.00137 0.00152539 0)
(1.00168 0.00150536 0)
(1.00183 0.0016554 0)
(1.00196 0.00178634 0)
(1.00246 0.0017963 0)
(1.00289 0.00175057 0)
(1.0032 0.00173449 0)
(1.00301 0.00184442 0)
(1.00013 -2.84471e-05 0)
(0.999794 -0.000220335 0)
(0.999783 0.000235236 0)
(1.00014 0.000205889 0)
(1.0005 -0.000181002 0)
(0.999798 0.000283026 0)
(0.999697 0.00101807 0)
(1.00034 0.00097269 0)
(1.00097 0.000628805 0)
(1.00069 0.000776264 0)