/*--------------------------------*- C++ -*----------------------------------*\
| =========                 |                                                 |
| \\      /  F ield         | OpenFOAM: The Open Source CFD Toolbox           |
|  \\    /   O peration     | Version:  2106                                  |
|   \\  /    A nd           | Website:  www.openfoam.com                      |
|    \\/     M anipulation  |                                                 |
\*---------------------------------------------------------------------------*/
FoamFile
{
    version     2.0;
    format      ascii;
    arch        "LSB;label=32;scalar=64";
    class       volScalarField;
    location    "0.325";
    object      p;
}
// * * * * * * * * * * * * * * * * * * * * * * * * * * * * * * * * * * * * * //

dimensions      [0 2 -2 0 0 0 0];

internalField   nonuniform List<scalar> 
9600
(
-7.19886e-11
-0.000701636
-0.00307912
-0.00182389
-0.00166525
-0.00151637
-0.00193971
-0.000399878
-0.00180847
-0.000481455
-0.000885671
-0.000601728
-0.000761915
-2.32755e-05
-9.91155e-05
0.00163394
0.0014816
0.00258295
0.00363428
0.00643483
1.53131e-06
-0.000711149
-0.00306651
-0.00183122
-0.00167083
-0.00149793
-0.00193745
-0.000406065
-0.00180696
-0.000483884
-0.000883863
-0.000601607
-0.000753753
-2.55486e-05
-8.91189e-05
0.00157798
0.00149929
0.00252529
0.00365058
0.00609199
1.51043e-06
-0.000723201
-0.00305119
-0.00183852
-0.00167248
-0.00147719
-0.00193913
-0.000412809
-0.00180151
-0.000489715
-0.00087994
-0.000596749
-0.000742965
-3.11778e-05
-7.49856e-05
0.00151964
0.0015188
0.00245747
0.00364934
0.00568957
-8.43745e-07
-0.000736967
-0.00303496
-0.00184014
-0.00167119
-0.00146203
-0.00194283
-0.000416107
-0.00179209
-0.00049752
-0.000876479
-0.000588499
-0.000733005
-3.96165e-05
-5.8374e-05
0.00145739
0.00153707
0.00238584
0.00361922
0.00531844
-5.23656e-06
-0.000752794
-0.00301651
-0.00183652
-0.00166923
-0.00145188
-0.00194649
-0.000417566
-0.00177961
-0.000507693
-0.000874556
-0.0005804
-0.000724315
-5.09872e-05
-3.99244e-05
0.00139239
0.00155562
0.0023079
0.00356716
0.00498531
-1.13825e-05
-0.000770466
-0.00299529
-0.00182879
-0.00166783
-0.00144554
-0.00194972
-0.000418652
-0.00176535
-0.000520771
-0.000873927
-0.000574144
-0.000715866
-6.50478e-05
-1.99735e-05
0.00132695
0.00157318
0.00222473
0.00349773
0.00468051
-1.89327e-05
-0.000789579
-0.00297155
-0.00181847
-0.00166774
-0.00144214
-0.00195235
-0.000419603
-0.00175051
-0.000536408
-0.000873442
-0.000569976
-0.000706325
-8.1689e-05
1.29838e-06
0.00125991
0.00158785
0.00213977
0.00340982
0.00439601
-2.74879e-05
-0.000809846
-0.00294585
-0.00180698
-0.00166897
-0.00144065
-0.0019542
-0.000420503
-0.00173569
-0.000553921
-0.000872024
-0.000567722
-0.000694847
-0.000100865
2.35854e-05
0.00119433
0.00159813
0.00205473
0.00330059
0.00412752
-3.6714e-05
-0.000831117
-0.00291863
-0.0017952
-0.00167105
-0.00144015
-0.00195527
-0.000421603
-0.0017209
-0.000572888
-0.000869024
-0.000567329
-0.000681076
-0.000122518
4.62296e-05
0.00112869
0.00160211
0.00197034
0.00316908
0.00387201
-4.63939e-05
-0.000853324
-0.00289021
-0.00178354
-0.00167345
-0.0014401
-0.00195567
-0.000423208
-0.00170586
-0.000593191
-0.000864114
-0.000568921
-0.000665066
-0.000146542
6.84522e-05
0.00106363
0.0015975
0.00188736
0.00301644
0.00362576
-5.64136e-05
-0.000876438
-0.00286069
-0.00177217
-0.00167577
-0.00144024
-0.00195549
-0.000425611
-0.0016902
-0.000614897
-0.000857174
-0.00057267
-0.000647147
-0.000172665
8.94419e-05
0.00100011
0.00158216
0.0018062
0.00284494
0.00338448
-6.67261e-05
-0.000900441
-0.00283011
-0.00176117
-0.00167779
-0.00144044
-0.00195482
-0.000429048
-0.00167359
-0.00063816
-0.000848223
-0.000578702
-0.000627729
-0.000200437
0.000108135
0.000939328
0.00155458
0.00172654
0.0026577
0.00314425
-7.7318e-05
-0.000925321
-0.0027985
-0.00175058
-0.00167939
-0.00144062
-0.00195375
-0.00043369
-0.00165577
-0.000663173
-0.000837295
-0.000587032
-0.000607297
-0.000229238
0.000123258
0.000882172
0.00151395
0.00164706
0.00245847
0.00290208
-8.81891e-05
-0.000951065
-0.00276585
-0.00174044
-0.00168054
-0.00144071
-0.00195231
-0.000439654
-0.00163658
-0.000690123
-0.000824399
-0.00059756
-0.000586482
-0.00025824
0.000133589
0.000828964
0.00146021
0.00156561
0.00225132
0.0026561
-9.93446e-05
-0.000977657
-0.0027322
-0.00173076
-0.00168124
-0.00144067
-0.00195055
-0.000447033
-0.00161592
-0.000719112
-0.000809631
-0.000610048
-0.000566041
-0.000286613
0.000138253
0.000780386
0.0013941
0.00147972
0.00204002
0.00240546
-0.000110792
-0.00100508
-0.00269758
-0.00172156
-0.0016815
-0.00144041
-0.00194851
-0.000455911
-0.00159374
-0.000750178
-0.000793198
-0.000624077
-0.000546768
-0.000313702
0.000136523
0.000746684
0.00131721
0.00138729
0.00182772
0.00215024
-0.000122542
-0.0010333
-0.00266205
-0.00171282
-0.0016814
-0.00143983
-0.00194625
-0.000466353
-0.00157005
-0.000783351
-0.000775366
-0.000639113
-0.000529459
-0.000338951
0.000127706
0.000702847
0.00123129
0.00128677
0.00161693
0.00189141
-0.000134605
-0.00106228
-0.0026257
-0.00170451
-0.00168101
-0.00143881
-0.00194383
-0.000478398
-0.00154483
-0.000818594
-0.000756418
-0.000654625
-0.000514838
-0.000362041
0.000111794
0.000658094
0.00113744
0.00117693
0.00140965
0.00163096
-0.000146997
-0.00109198
-0.0025886
-0.00169658
-0.00168045
-0.00143717
-0.00194136
-0.000492081
-0.00151811
-0.000855816
-0.000736696
-0.000670091
-0.000503412
-0.000383039
8.9044e-05
0.000612359
0.00103635
0.00105695
0.00120727
0.00137162
-0.000159736
-0.00112233
-0.00255088
-0.00168893
-0.0016799
-0.00143474
-0.00193893
-0.000507449
-0.00148985
-0.000894923
-0.000716581
-0.000685001
-0.000495603
-0.000402142
5.94091e-05
0.000564856
0.000929
0.000926273
0.00101039
0.0011168
-0.000172846
-0.00115326
-0.00251269
-0.00168147
-0.00167952
-0.00143132
-0.00193665
-0.000524579
-0.00146
-0.00093577
-0.00069642
-0.000699
-0.000491881
-0.000419319
2.2797e-05
0.000514881
0.000816873
0.000784492
0.000818426
0.000870473
-0.000186351
-0.00118467
-0.00247421
-0.00167404
-0.00167955
-0.00142667
-0.00193455
-0.000543593
-0.00142848
-0.000978254
-0.000676525
-0.000711848
-0.000492776
-0.000434362
-2.11409e-05
0.000461212
0.000702235
0.000631737
0.000629146
0.000636504
-0.000200283
-0.00121645
-0.00243566
-0.00166648
-0.00168022
-0.0014206
-0.00193259
-0.000564638
-0.00139516
-0.00102236
-0.000657113
-0.00072326
-0.00049896
-0.00044731
-7.25619e-05
0.000402122
0.0005879
0.000469607
0.000439041
0.00041697
-0.000214682
-0.00124845
-0.0023973
-0.00165857
-0.00168176
-0.00141299
-0.0019307
-0.000587928
-0.00135988
-0.00106815
-0.000638453
-0.000733106
-0.000511505
-0.000458497
-0.000130647
0.000335684
0.000476183
0.000301512
0.000244285
0.000210816
-0.000229595
-0.0012805
-0.00235942
-0.00165008
-0.00168438
-0.00140377
-0.00192872
-0.000613811
-0.00132226
-0.00111575
-0.000621183
-0.000740336
-0.000531586
-0.000468473
-0.000193865
0.000259412
0.000367804
0.000132084
4.24757e-05
1.40086e-05
-0.00024508
-0.00131238
-0.0023224
-0.00164078
-0.00168821
-0.00139294
-0.00192637
-0.000642765
-0.00128189
-0.00116511
-0.00060624
-0.000743621
-0.000560164
-0.000478297
-0.000260614
0.000170854
0.000261635
-3.31686e-05
-0.000165866
-0.000179806
-0.000261216
-0.00134384
-0.00228664
-0.00163048
-0.00169335
-0.00138053
-0.00192321
-0.00067544
-0.00123834
-0.00121577
-0.000594977
-0.000741784
-0.000598089
-0.000489531
-0.000349173
6.80647e-05
0.000154839
-0.000188845
-0.000376707
-0.000378038
-0.000278091
-0.00137457
-0.00225255
-0.00161901
-0.00169983
-0.00136678
-0.00191857
-0.000712579
-0.00119122
-0.00126695
-0.000589477
-0.000733448
-0.000645184
-0.000504478
-0.000415698
-4.85928e-05
4.34774e-05
-0.000331406
-0.000583142
-0.000585995
-0.000295826
-0.00140422
-0.00222056
-0.00160623
-0.00170757
-0.00135214
-0.00191155
-0.000754901
-0.00114069
-0.00131743
-0.000592102
-0.000719442
-0.000700556
-0.000527015
-0.000473551
-0.000175795
-7.74557e-05
-0.000461062
-0.000777476
-0.000803327
-0.000314557
-0.0014324
-0.00219105
-0.00159214
-0.00171638
-0.00133721
-0.00190112
-0.000802987
-0.00108773
-0.00136532
-0.000605102
-0.000692887
-0.00076256
-0.000560746
-0.00052177
-0.000308413
-0.000212218
-0.00058218
-0.000952543
-0.00102296
-0.000334444
-0.00145871
-0.00216436
-0.00157685
-0.0017259
-0.00132276
-0.0018862
-0.00085714
-0.00103363
-0.00140824
-0.000630675
-0.000658986
-0.00082725
-0.000611693
-0.00056226
-0.000439682
-0.000362008
-0.000700581
-0.00110442
-0.00123361
-0.000355683
-0.00148271
-0.00214083
-0.00156062
-0.00173553
-0.00130975
-0.00186584
-0.00091729
-0.000980113
-0.00144372
-0.000670468
-0.000620399
-0.000889522
-0.000682645
-0.000599243
-0.0005624
-0.000524734
-0.000822972
-0.00123445
-0.00142409
-0.000378477
-0.00150397
-0.00212077
-0.00154387
-0.00174444
-0.00129933
-0.00183959
-0.000982746
-0.000929573
-0.00146932
-0.000724929
-0.000580814
-0.000944611
-0.000774351
-0.000637773
-0.000670125
-0.000695472
-0.000956077
-0.00134897
-0.00158556
-0.00040305
-0.00152213
-0.00210419
-0.00152717
-0.00175172
-0.00129247
-0.00180737
-0.00105216
-0.000884644
-0.00148326
-0.000793421
-0.000544806
-0.000988223
-0.000885017
-0.000684344
-0.000758423
-0.000866888
-0.00110408
-0.00145668
-0.00171631
-0.000429651
-0.00153685
-0.00209094
-0.00151144
-0.00175655
-0.00128967
-0.00176954
-0.00112354
-0.00084772
-0.00148477
-0.000874368
-0.000517709
-0.0010167
-0.00101006
-0.000746552
-0.000826994
-0.00103027
-0.00126652
-0.00156625
-0.00182368
-0.000458494
-0.00154787
-0.00208071
-0.00149775
-0.00175847
-0.00129106
-0.00172706
-0.00119472
-0.000820749
-0.00147371
-0.000965202
-0.000504619
-0.0010284
-0.00114364
-0.000831611
-0.000880464
-0.00117636
-0.00143934
-0.00168302
-0.001917
-0.000489742
-0.00155506
-0.00207331
-0.00148714
-0.0017573
-0.00129639
-0.00168127
-0.00126393
-0.000805255
-0.00145071
-0.00106269
-0.000509737
-0.00102422
-0.00127865
-0.000943485
-0.000926002
-0.00129682
-0.0016168
-0.00180981
-0.00200199
-0.000523496
-0.00155844
-0.00206831
-0.00148051
-0.00175326
-0.00130525
-0.00163245
-0.00132945
-0.000802436
-0.00141713
-0.00116301
-0.000537124
-0.00100717
-0.00140589
-0.00108207
-0.000972881
-0.00138598
-0.00179056
-0.00195066
-0.00208083
-0.000559781
-0.00155816
-0.00206071
-0.00147856
-0.0017471
-0.00131711
-0.00158341
-0.00138956
-0.000813283
-0.00137476
-0.00126189
-0.00059018
-0.000982177
-0.00151498
-0.00124262
-0.00103301
-0.00144359
-0.0019478
-0.00210985
-0.00215972
-0.00059856
-0.00155459
-0.00205225
-0.00148162
-0.0017399
-0.00133154
-0.00153363
-0.00144335
-0.000838761
-0.00132591
-0.00135432
-0.000670193
-0.000956102
-0.00159775
-0.00141705
-0.00111739
-0.00147702
-0.00207293
-0.00228353
-0.00225325
-0.000639718
-0.00154839
-0.00204227
-0.00148931
-0.00173271
-0.00134853
-0.0014837
-0.00148964
-0.000879356
-0.00127407
-0.00143477
-0.000775204
-0.000938615
-0.00165124
-0.00159438
-0.00123092
-0.00149892
-0.00215555
-0.00245459
-0.00237662
-0.000683033
-0.00154042
-0.00203025
-0.00150066
-0.00172659
-0.0013685
-0.00143456
-0.00152727
-0.000934656
-0.00122389
-0.00149815
-0.000900896
-0.000940521
-0.00167881
-0.00176103
-0.0013703
-0.00152387
-0.00219747
-0.00260159
-0.00253067
-0.000728259
-0.0015315
-0.00201588
-0.00151453
-0.00172212
-0.00139232
-0.00138762
-0.00155376
-0.0010036
-0.00118085
-0.00154114
-0.00104109
-0.000969576
-0.0016862
-0.00190573
-0.00152708
-0.00156209
-0.00220964
-0.00270944
-0.00269528
-0.000775134
-0.00152216
-0.00199917
-0.00152993
-0.00171947
-0.00142121
-0.00134484
-0.00156623
-0.00108401
-0.00115184
-0.00156347
-0.00118577
-0.00102862
-0.00168379
-0.00202376
-0.00169236
-0.00161622
-0.00220299
-0.00277723
-0.00284541
-0.000823307
-0.00151336
-0.00198046
-0.001546
-0.00171804
-0.00145582
-0.00130942
-0.00156401
-0.00117126
-0.00114279
-0.00156825
-0.00132279
-0.00111526
-0.00168399
-0.00211488
-0.00185864
-0.00168693
-0.00218255
-0.00281135
-0.00296861
-0.000872465
-0.00150541
-0.00196035
-0.00156205
-0.00171659
-0.00149584
-0.00128534
-0.00154839
-0.00125866
-0.0011559
-0.00156114
-0.0014448
-0.0012248
-0.00169518
-0.00218008
-0.0020174
-0.00177775
-0.00215347
-0.00281145
-0.00306629
-0.000922345
-0.00149872
-0.00193938
-0.00157769
-0.00171305
-0.00154065
-0.00127635
-0.0015216
-0.00133865
-0.00119102
-0.0015503
-0.00154787
-0.0013485
-0.00172218
-0.00222485
-0.00215854
-0.0018889
-0.00212962
-0.00277368
-0.0031365
-0.000972608
-0.00149361
-0.00191813
-0.0015929
-0.00170764
-0.00158783
-0.00128497
-0.00148961
-0.00140429
-0.00124449
-0.00154616
-0.00163184
-0.00147656
-0.00176691
-0.00225691
-0.00227584
-0.00201072
-0.00212677
-0.00270584
-0.0031655
-0.00102295
-0.00149024
-0.00189714
-0.00160824
-0.00170028
-0.00163345
-0.00131167
-0.00146107
-0.00145404
-0.00130727
-0.00155302
-0.00170083
-0.00160204
-0.00182703
-0.00228261
-0.00236876
-0.00213018
-0.00215081
-0.0026298
-0.00314286
-0.0010731
-0.00148869
-0.00187666
-0.00162465
-0.0016915
-0.00167336
-0.00135589
-0.00144317
-0.0014889
-0.00137122
-0.00156921
-0.0017611
-0.00172378
-0.00189972
-0.00230612
-0.00243952
-0.00223791
-0.0021936
-0.0025676
-0.00308088
-0.00112282
-0.00148906
-0.00185704
-0.00164283
-0.00168242
-0.00170532
-0.00141418
-0.00144203
-0.00151193
-0.00143027
-0.00159305
-0.00181319
-0.0018405
-0.00198527
-0.00233139
-0.00248941
-0.00232921
-0.0022428
-0.00252856
-0.00300674
-0.00117193
-0.00149144
-0.0018384
-0.00166306
-0.00167494
-0.00172835
-0.00147986
-0.0014602
-0.00153269
-0.00148124
-0.00161978
-0.0018589
-0.00194893
-0.00208261
-0.00236523
-0.00252051
-0.00240023
-0.00228935
-0.00250541
-0.00294387
-0.00122028
-0.00149601
-0.00182029
-0.00168516
-0.00167177
-0.00174261
-0.00154581
-0.00149711
-0.00156046
-0.00152571
-0.0016424
-0.00189726
-0.00204827
-0.00218773
-0.00241346
-0.00254147
-0.00244705
-0.00232815
-0.00248501
-0.00289691
-0.00126769
-0.00150299
-0.00180261
-0.00170849
-0.00167539
-0.00174922
-0.00160614
-0.00155031
-0.00159976
-0.0015695
-0.00166067
-0.00192172
-0.00213688
-0.00229848
-0.00247859
-0.00256248
-0.0024699
-0.00235467
-0.00246192
-0.00284987
-0.00131394
-0.00151268
-0.00178561
-0.00173217
-0.00168703
-0.00175144
-0.00165708
-0.00161323
-0.00165352
-0.00161881
-0.00167658
-0.00192971
-0.00220544
-0.00241031
-0.00256347
-0.002595
-0.00247722
-0.00236108
-0.00243699
-0.00279027
-0.00135881
-0.0015254
-0.00176983
-0.00175477
-0.00170711
-0.00175375
-0.00169717
-0.00167704
-0.00172083
-0.00168056
-0.00169463
-0.00192363
-0.00224627
-0.00251295
-0.00266759
-0.00265153
-0.00248181
-0.00234413
-0.00240544
-0.00272194
-0.00140201
-0.00154132
-0.00175594
-0.00177468
-0.00173495
-0.00176099
-0.00172721
-0.00173488
-0.00179734
-0.00175869
-0.00172333
-0.0019051
-0.00225785
-0.00259344
-0.00277953
-0.00274042
-0.00250526
-0.00231113
-0.00235713
-0.00264984
-0.00144334
-0.00156043
-0.00174501
-0.00179065
-0.00176897
-0.00177699
-0.00174937
-0.00178255
-0.00187506
-0.00185096
-0.00177206
-0.00188229
-0.00223848
-0.0026439
-0.0028861
-0.00285484
-0.00256856
-0.0022826
-0.00228619
-0.00256974
-0.00148263
-0.0015825
-0.00173838
-0.00180238
-0.00180635
-0.00180358
-0.00176881
-0.00181796
-0.00194621
-0.00195313
-0.00184521
-0.00187132
-0.00219203
-0.00265528
-0.0029746
-0.00298054
-0.0026777
-0.00229128
-0.00220011
-0.00246879
-0.00151982
-0.00160713
-0.00173733
-0.00181049
-0.00184316
-0.00184055
-0.00179233
-0.00184212
-0.00200402
-0.00205769
-0.00194084
-0.001885
-0.00213144
-0.0026216
-0.0030322
-0.00310475
-0.00281811
-0.00236064
-0.00212972
-0.00233848
-0.00155503
-0.0016337
-0.0017427
-0.00181622
-0.00187574
-0.00188598
-0.00182531
-0.00185829
-0.00204396
-0.00215483
-0.00205406
-0.00192984
-0.00207762
-0.00254974
-0.00304344
-0.00321273
-0.00297386
-0.00248872
-0.00211483
-0.00219586
-0.00158856
-0.00166143
-0.00175461
-0.00182159
-0.00190208
-0.0019364
-0.0018703
-0.00187369
-0.00206606
-0.00223498
-0.00217678
-0.00200819
-0.00204695
-0.00245393
-0.00300171
-0.00328647
-0.00312865
-0.00265533
-0.00217615
-0.00208353
-0.00162082
-0.00168945
-0.0017724
-0.00182932
-0.00192199
-0.00198635
-0.00192684
-0.00189624
-0.00207328
-0.00229164
-0.00229535
-0.0021149
-0.00205196
-0.00235624
-0.00291298
-0.0033098
-0.00326353
-0.00283989
-0.00230738
-0.00204398
-0.00165236
-0.00171715
-0.00179504
-0.00184184
-0.00193679
-0.00203031
-0.00199183
-0.00193201
-0.00207213
-0.00232297
-0.00239703
-0.00223932
-0.00209997
-0.00227933
-0.00278931
-0.00327412
-0.00336071
-0.00302014
-0.00248463
-0.00209429
-0.00168368
-0.00174424
-0.00182104
-0.00186034
-0.00194873
-0.00206531
-0.00206012
-0.00198358
-0.00207271
-0.00233124
-0.00247402
-0.00236564
-0.00218484
-0.00224263
-0.00265588
-0.0031813
-0.00340394
-0.00317725
-0.00268303
-0.00222154
-0.00171519
-0.00177075
-0.00184866
-0.00188481
-0.00196106
-0.00209115
-0.00212455
-0.00204851
-0.00208497
-0.00232183
-0.00252148
-0.00247955
-0.00229404
-0.00225422
-0.00254287
-0.00304438
-0.00338128
-0.00329419
-0.00287755
-0.00239937
-0.00174715
-0.00179701
-0.00187624
-0.00191419
-0.00197691
-0.00210966
-0.00217933
-0.00212154
-0.0021148
-0.00230608
-0.00253927
-0.0025713
-0.00241216
-0.00230665
-0.00247233
-0.00289474
-0.00329546
-0.0033534
-0.00304836
-0.0026011
-0.00177957
-0.00182342
-0.00190275
-0.00194689
-0.00199823
-0.00212356
-0.00222194
-0.00219533
-0.00216207
-0.00229732
-0.00253299
-0.0026329
-0.00252447
-0.00238773
-0.00245065
-0.00276618
-0.00316494
-0.00334516
-0.00317592
-0.00280014
-0.00181226
-0.0018504
-0.00192799
-0.00198086
-0.00202523
-0.00213657
-0.00225289
-0.00226227
-0.00222169
-0.00230383
-0.00251388
-0.00266206
-0.00261866
-0.00248376
-0.00247039
-0.00267945
-0.00302581
-0.00327757
-0.00324392
-0.00297108
-0.00184488
-0.00187821
-0.00195228
-0.00201407
-0.00205671
-0.00215213
-0.00227482
-0.00231755
-0.00228696
-0.00232764
-0.00249641
-0.0026653
-0.00268501
-0.00257986
-0.00252103
-0.00263886
-0.00290872
-0.00317478
-0.00324979
-0.00309317
-0.00187704
-0.00190682
-0.00197617
-0.00204517
-0.00209076
-0.00217198
-0.00229116
-0.00235992
-0.00235027
-0.0023655
-0.00248961
-0.00265338
-0.00272142
-0.00266245
-0.00258988
-0.00263779
-0.0028292
-0.00306931
-0.00320719
-0.00315675
-0.00190837
-0.00193593
-0.00200016
-0.00207369
-0.00212529
-0.0021961
-0.00230572
-0.00239096
-0.00240569
-0.0024116
-0.00249657
-0.00263909
-0.00273456
-0.00272272
-0.00266213
-0.00266632
-0.00278921
-0.00298325
-0.00314072
-0.00316882
-0.00193858
-0.00196506
-0.00202448
-0.0020998
-0.0021584
-0.00222333
-0.00232133
-0.0024136
-0.00245046
-0.00245981
-0.00251616
-0.00263073
-0.0027337
-0.00275953
-0.0027253
-0.00271162
-0.00278209
-0.0029262
-0.00307397
-0.00314608
-0.00196739
-0.00199359
-0.00204905
-0.00212393
-0.00218885
-0.0022519
-0.00233917
-0.0024312
-0.00248466
-0.00250447
-0.00254434
-0.00263179
-0.00272869
-0.00277848
-0.0027727
-0.00276022
-0.0027977
-0.00289778
-0.00302119
-0.00310884
-0.00199452
-0.00202088
-0.00207345
-0.00214648
-0.0022161
-0.0022801
-0.00235909
-0.00244681
-0.00251049
-0.00254208
-0.00257587
-0.00264215
-0.00272633
-0.00278693
-0.00280431
-0.00280272
-0.0028245
-0.00289138
-0.00298723
-0.00307266
-0.00201961
-0.00204633
-0.00209704
-0.00216768
-0.00224013
-0.00230647
-0.00238015
-0.00246227
-0.00253067
-0.00257226
-0.00260622
-0.00265872
-0.00272921
-0.00279149
-0.00282449
-0.00283584
-0.00285328
-0.00289879
-0.00297049
-0.00304532
-0.00204225
-0.00206937
-0.00211906
-0.00218743
-0.00226116
-0.00232998
-0.00240083
-0.00247788
-0.00254753
-0.00259648
-0.00263324
-0.00267792
-0.00273683
-0.0027959
-0.00283772
-0.00286053
-0.00287994
-0.00291368
-0.00296691
-0.00302894
-0.00206196
-0.00208936
-0.00213857
-0.00220515
-0.0022793
-0.00235036
-0.00242001
-0.00249272
-0.00256169
-0.00261587
-0.00265674
-0.00269764
-0.00274744
-0.00280114
-0.00284652
-0.00287803
-0.00290247
-0.002932
-0.00297344
-0.0030237
-0.00207837
-0.00210593
-0.00215483
-0.00221973
-0.00229338
-0.002366
-0.00243534
-0.00250462
-0.00257166
-0.00262875
-0.00267367
-0.00271392
-0.00275801
-0.00280636
-0.00285201
-0.00288887
-0.00291789
-0.00294584
-0.00297925
-0.00301959
-0.00209182
-0.00212133
-0.00217201
-0.00223748
-0.00231136
-0.00238538
-0.0024556
-0.00252352
-0.00258872
-0.00264638
-0.0026938
-0.00273513
-0.00277707
-0.00282195
-0.00286623
-0.00290513
-0.00293764
-0.00296723
-0.00299868
-0.00303441
0.00945028
0.00451299
-0.00303214
-0.00872106
-0.010235
-0.0092962
-0.00817848
-0.00752957
-0.00719933
-0.00699035
-0.00682107
-0.0066958
-0.00666232
-0.00668921
-0.00665453
-0.00653626
-0.00639762
-0.00625989
-0.00613981
-0.00603258
-0.00592971
-0.0058822
-0.00586706
-0.0057981
-0.00571765
-0.00568841
-0.00564836
-0.00556753
-0.00550523
-0.00547033
-0.00541991
-0.00535186
-0.00530946
-0.00530163
-0.00526033
-0.00516889
-0.00511553
-0.00510186
-0.00503814
-0.00494569
-0.00488885
-0.00483094
-0.00473746
-0.00464113
-0.00455375
-0.00445575
-0.00434475
-0.0042325
-0.00412175
-0.00400898
-0.00389318
-0.0037778
-0.00365945
-0.00353538
-0.00341
-0.0032881
-0.00316427
-0.0030361
-0.00290665
-0.00277795
-0.00264782
-0.00251493
-0.00238132
-0.00224593
-0.00211002
-0.00197088
-0.00183163
-0.00168907
-0.00154638
-0.00140049
-0.00125377
-0.00110481
-0.000953422
-0.000801336
-0.000644838
-0.00048922
-0.000327932
-0.000167799
-2.59732e-06
0.000163578
0.000332056
0.00050541
0.000677772
0.000857791
0.00103652
0.00122094
0.00140936
0.00159636
0.00179545
0.00198762
0.00219261
0.00239857
0.00260179
0.00282709
0.00303545
0.00326303
0.00350522
0.00372581
0.00396665
0.0042235
0.00875734
0.00437532
-0.00294241
-0.00857926
-0.0101488
-0.00925401
-0.00815183
-0.0075109
-0.00718576
-0.00697989
-0.0068124
-0.00668818
-0.00665563
-0.00668361
-0.00664987
-0.00653222
-0.00639408
-0.00625672
-0.00613694
-0.00603
-0.00592728
-0.00587991
-0.00586506
-0.00579626
-0.00571583
-0.00568674
-0.00564688
-0.0055661
-0.00550385
-0.00546909
-0.00541879
-0.00535079
-0.00530843
-0.00530072
-0.00525956
-0.00516814
-0.0051148
-0.00510125
-0.00503764
-0.0049452
-0.00488841
-0.00483059
-0.00473715
-0.00464085
-0.00455351
-0.00445554
-0.00434457
-0.00423235
-0.00412162
-0.00400887
-0.00389308
-0.00377772
-0.00365939
-0.00353533
-0.00340995
-0.00328806
-0.00316424
-0.00303607
-0.00290663
-0.00277793
-0.00264781
-0.00251492
-0.00238132
-0.00224593
-0.00211001
-0.00197088
-0.00183163
-0.00168907
-0.00154638
-0.00140049
-0.00125377
-0.00110482
-0.000953422
-0.000801336
-0.000644838
-0.00048922
-0.000327933
-0.000167799
-2.59786e-06
0.000163578
0.000332055
0.00050541
0.000677772
0.000857791
0.00103652
0.00122094
0.00140936
0.00159636
0.00179545
0.00198762
0.00219261
0.00239857
0.00260179
0.00282709
0.00303546
0.00326303
0.00350523
0.00372581
0.00396666
0.00422353
0.00809208
0.00424127
-0.00275367
-0.00830866
-0.00999778
-0.00919913
-0.00812624
-0.00749112
-0.00716899
-0.0069664
-0.00680196
-0.00667984
-0.0066485
-0.0066774
-0.00664452
-0.00652767
-0.00639028
-0.00625345
-0.00613405
-0.00602746
-0.00592495
-0.0058778
-0.00586324
-0.00579455
-0.00571415
-0.00568525
-0.00564555
-0.00556478
-0.00550258
-0.00546795
-0.00541775
-0.00534979
-0.00530748
-0.00529989
-0.00525885
-0.00516742
-0.0051141
-0.0051007
-0.00503715
-0.0049447
-0.00488799
-0.00483026
-0.00473684
-0.00464056
-0.00455328
-0.00445535
-0.00434439
-0.00423219
-0.00412149
-0.00400875
-0.00389298
-0.00377764
-0.00365932
-0.00353527
-0.0034099
-0.00328802
-0.00316421
-0.00303604
-0.0029066
-0.00277791
-0.00264779
-0.00251491
-0.00238131
-0.00224592
-0.00211001
-0.00197088
-0.00183163
-0.00168907
-0.00154638
-0.00140049
-0.00125377
-0.00110482
-0.000953422
-0.000801337
-0.000644838
-0.000489221
-0.000327933
-0.000167799
-2.59821e-06
0.000163578
0.000332055
0.000505411
0.000677772
0.000857791
0.00103652
0.00122093
0.00140936
0.00159636
0.00179545
0.00198762
0.00219261
0.00239857
0.00260179
0.00282709
0.00303546
0.00326303
0.00350523
0.00372582
0.00396667
0.00422359
0.00747741
0.00411582
-0.00251365
-0.0079675
-0.00979218
-0.00912349
-0.00809124
-0.00746277
-0.00714415
-0.00694653
-0.00678732
-0.00666905
-0.00663936
-0.00666864
-0.00663634
-0.00652079
-0.00638483
-0.00624897
-0.00613015
-0.00602408
-0.00592199
-0.00587521
-0.005861
-0.00579248
-0.00571221
-0.00568356
-0.00564403
-0.00556327
-0.0055011
-0.00546659
-0.00541652
-0.00534863
-0.00530636
-0.00529888
-0.00525794
-0.00516653
-0.00511325
-0.00509998
-0.00503649
-0.00494406
-0.00488745
-0.00482981
-0.00473642
-0.00464019
-0.00455297
-0.00445508
-0.00434415
-0.00423198
-0.00412131
-0.0040086
-0.00389285
-0.00377752
-0.00365923
-0.00353519
-0.00340983
-0.00328796
-0.00316416
-0.003036
-0.00290657
-0.00277789
-0.00264777
-0.00251489
-0.0023813
-0.00224591
-0.00211
-0.00197087
-0.00183163
-0.00168907
-0.00154638
-0.00140049
-0.00125377
-0.00110482
-0.000953422
-0.000801338
-0.000644838
-0.000489221
-0.000327933
-0.000167799
-2.59856e-06
0.000163579
0.000332054
0.000505412
0.000677771
0.000857791
0.00103652
0.00122093
0.00140936
0.00159636
0.00179545
0.00198762
0.00219261
0.00239858
0.00260179
0.00282709
0.00303546
0.00326302
0.00350524
0.00372582
0.00396668
0.00422366
0.00688378
0.00397104
-0.00227013
-0.00760981
-0.00956726
-0.00903884
-0.0080521
-0.00742861
-0.0071121
-0.00691993
-0.00676753
-0.00665479
-0.00662725
-0.00665622
-0.00662406
-0.00651035
-0.0063768
-0.00624259
-0.00612468
-0.00601937
-0.00591795
-0.00587161
-0.00585774
-0.00578959
-0.00570967
-0.00568134
-0.00564205
-0.00556138
-0.00549919
-0.00546473
-0.00541487
-0.00534718
-0.00530492
-0.00529743
-0.00525661
-0.0051653
-0.00511208
-0.00509888
-0.00503545
-0.00494309
-0.00488661
-0.00482908
-0.00473575
-0.0046396
-0.00455247
-0.00445464
-0.00434375
-0.00423163
-0.00412101
-0.00400835
-0.00389263
-0.00377733
-0.00365907
-0.00353505
-0.00340971
-0.00328786
-0.00316408
-0.00303593
-0.00290651
-0.00277784
-0.00264773
-0.00251486
-0.00238127
-0.00224589
-0.00210999
-0.00197086
-0.00183162
-0.00168906
-0.00154638
-0.00140049
-0.00125377
-0.00110482
-0.00095342
-0.000801338
-0.000644837
-0.000489222
-0.000327932
-0.000167798
-2.59895e-06
0.00016358
0.000332053
0.000505412
0.000677771
0.000857791
0.00103652
0.00122093
0.00140936
0.00159636
0.00179545
0.00198762
0.00219261
0.00239858
0.00260179
0.00282709
0.00303546
0.00326302
0.00350524
0.00372582
0.00396668
0.00422376
0.0063012
0.00379503
-0.00203823
-0.00724918
-0.00933209
-0.0089498
-0.00801302
-0.00739286
-0.00707633
-0.0068892
-0.00674426
-0.00663787
-0.00661252
-0.00664037
-0.00660783
-0.0064963
-0.00636598
-0.00623414
-0.00611753
-0.0060133
-0.00591283
-0.00586683
-0.00585313
-0.00578554
-0.00570624
-0.0056783
-0.00563941
-0.00555902
-0.00549674
-0.00546216
-0.00541263
-0.00534534
-0.00530303
-0.00529534
-0.00525466
-0.00516362
-0.00511044
-0.00509717
-0.00503381
-0.00494164
-0.00488532
-0.00482788
-0.00473467
-0.00463868
-0.00455166
-0.0044539
-0.00434309
-0.00423107
-0.00412053
-0.00400794
-0.00389227
-0.00377701
-0.00365879
-0.00353482
-0.00340952
-0.00328769
-0.00316393
-0.00303581
-0.00290641
-0.00277775
-0.00264766
-0.0025148
-0.00238123
-0.00224585
-0.00210996
-0.00197084
-0.0018316
-0.00168905
-0.00154637
-0.00140048
-0.00125377
-0.00110481
-0.000953418
-0.000801338
-0.000644836
-0.000489222
-0.000327932
-0.000167798
-2.5994e-06
0.000163581
0.000332053
0.000505413
0.00067777
0.000857791
0.00103652
0.00122093
0.00140937
0.00159636
0.00179545
0.00198762
0.00219261
0.00239858
0.00260179
0.00282709
0.00303546
0.00326301
0.00350524
0.00372581
0.00396667
0.00422387
0.00573075
0.0035879
-0.00182016
-0.00688584
-0.00908543
-0.00885515
-0.00797421
-0.00735679
-0.00703828
-0.00685576
-0.00671877
-0.00661921
-0.00659597
-0.00662218
-0.00658885
-0.00647963
-0.00635299
-0.00622396
-0.00610893
-0.00600612
-0.00590691
-0.00586109
-0.00584723
-0.00578024
-0.00570172
-0.0056742
-0.00563591
-0.0055561
-0.00549367
-0.00545878
-0.00540968
-0.00534307
-0.00530065
-0.00529248
-0.00525198
-0.00516146
-0.00510825
-0.00509468
-0.00503141
-0.00493959
-0.00488342
-0.00482604
-0.00473303
-0.00463729
-0.00455042
-0.00445275
-0.00434207
-0.00423018
-0.00411976
-0.00400728
-0.00389169
-0.0037765
-0.00365834
-0.00353444
-0.0034092
-0.00328741
-0.00316368
-0.0030356
-0.00290624
-0.00277761
-0.00264754
-0.0025147
-0.00238114
-0.00224578
-0.0021099
-0.00197079
-0.00183157
-0.00168902
-0.00154635
-0.00140047
-0.00125375
-0.00110481
-0.000953413
-0.000801337
-0.000644834
-0.000489222
-0.000327932
-0.000167798
-2.59992e-06
0.000163581
0.000332052
0.000505414
0.00067777
0.000857791
0.00103652
0.00122093
0.00140937
0.00159636
0.00179545
0.00198761
0.0021926
0.00239858
0.00260178
0.00282709
0.00303546
0.00326299
0.00350523
0.00372579
0.00396665
0.004224
0.00517782
0.00335295
-0.00161754
-0.00651899
-0.00882459
-0.00875239
-0.00793503
-0.00732087
-0.00699843
-0.00681993
-0.00669132
-0.00659907
-0.0065781
-0.00660249
-0.0065682
-0.0064613
-0.00633852
-0.00621252
-0.00609926
-0.00599814
-0.00590048
-0.00585479
-0.00584045
-0.00577395
-0.00569618
-0.00566901
-0.00563148
-0.00555254
-0.00548998
-0.00545461
-0.00540604
-0.00534033
-0.00529773
-0.00528883
-0.00524855
-0.00515881
-0.00510552
-0.00509138
-0.00502821
-0.00493686
-0.00488083
-0.00482347
-0.00473075
-0.00463534
-0.00454864
-0.00445111
-0.00434061
-0.0042289
-0.00411864
-0.00400631
-0.00389084
-0.00377573
-0.00365765
-0.00353386
-0.00340872
-0.00328699
-0.0031633
-0.00303527
-0.00290597
-0.00277738
-0.00264734
-0.00251453
-0.002381
-0.00224567
-0.00210981
-0.00197072
-0.0018315
-0.00168897
-0.00154631
-0.00140044
-0.00125373
-0.00110479
-0.000953403
-0.000801331
-0.00064483
-0.00048922
-0.000327931
-0.000167798
-2.60045e-06
0.000163582
0.000332051
0.000505414
0.000677769
0.000857791
0.00103652
0.00122093
0.00140937
0.00159636
0.00179545
0.00198761
0.0021926
0.00239858
0.00260178
0.00282708
0.00303546
0.00326297
0.00350522
0.00372576
0.0039666
0.00422413
0.00464807
0.00309296
-0.00143399
-0.00614968
-0.00854796
-0.00863948
-0.007895
-0.00728575
-0.00695729
-0.00678177
-0.00666183
-0.00657749
-0.00655915
-0.00658175
-0.00654641
-0.00644186
-0.00632303
-0.00620015
-0.00608874
-0.0059895
-0.00589366
-0.00584817
-0.00583316
-0.00576699
-0.00568987
-0.00566294
-0.00562622
-0.00554836
-0.00548572
-0.00544979
-0.00540181
-0.00533716
-0.0052943
-0.00528442