/*--------------------------------*- C++ -*----------------------------------*\
| =========                 |                                                 |
| \\      /  F ield         | OpenFOAM: The Open Source CFD Toolbox           |
|  \\    /   O peration     | Version:  2106                                  |
|   \\  /    A nd           | Website:  www.openfoam.com                      |
|    \\/     M anipulation  |                                                 |
\*---------------------------------------------------------------------------*/
FoamFile
{
    version     2.0;
    format      ascii;
    arch        "LSB;label=32;scalar=64";
    class       volVectorField;
    location    "0.125";
    object      U;
}
// * * * * * * * * * * * * * * * * * * * * * * * * * * * * * * * * * * * * * //

dimensions      [0 1 -1 0 0 0 0];

internalField   nonuniform List<vector> 
9600
(
(0.886187 -0.0078051 0)
(1.1494 -0.0087989 0)
(0.889884 0.00997537 0)
(1.11566 0.00828389 0)
(0.894559 -0.00319429 0)
(1.12489 -0.00969702 0)
(0.892113 0.000881576 0)
(1.1141 0.00673779 0)
(0.887138 0.00523142 0)
(1.10252 -0.000872327 0)
(0.899032 -0.00666552 0)
(1.10595 -0.0110553 0)
(0.872675 -0.00220314 0)
(1.12584 0.0019285 0)
(0.881974 0.00184708 0)
(1.08472 0.00599964 0)
(0.891649 0.00773006 0)
(1.08621 -0.00165959 0)
(0.869716 0.00607807 0)
(1.10005 -0.0113427 0)
(0.897114 -0.008126 0)
(1.13992 -0.00870512 0)
(0.897233 0.0100446 0)
(1.10402 0.00841027 0)
(0.911817 -0.00346379 0)
(1.10971 -0.00949927 0)
(0.90571 0.000830213 0)
(1.09741 0.00696031 0)
(0.911069 0.005174 0)
(1.07842 -0.000866824 0)
(0.928556 -0.00693256 0)
(1.07798 -0.0103426 0)
(0.906276 -0.00294246 0)
(1.08659 0.0018451 0)
(0.931025 0.00270872 0)
(1.03311 0.00588993 0)
(0.957017 0.0078069 0)
(1.01331 -0.00151412 0)
(0.964726 0.00656192 0)
(0.991294 -0.0126952 0)
(0.914302 -0.0084171 0)
(1.12024 -0.00859066 0)
(0.915072 0.0101783 0)
(1.08426 0.00843545 0)
(0.93823 -0.00365132 0)
(1.08428 -0.00930763 0)
(0.931203 0.000835661 0)
(1.06954 0.00705023 0)
(0.94597 0.00525005 0)
(1.04806 -0.000979332 0)
(0.963885 -0.00696547 0)
(1.04326 -0.00997757 0)
(0.948722 -0.00312727 0)
(1.04156 0.00151815 0)
(0.975426 0.00369 0)
(0.99886 0.00544505 0)
(0.987001 0.0079957 0)
(0.995189 -0.00141104 0)
(0.984967 0.00616468 0)
(0.991297 -0.00924615 0)
(0.935038 -0.00864993 0)
(1.09193 -0.0085351 0)
(0.940316 0.0103264 0)
(1.06307 0.00836061 0)
(0.965768 -0.00370828 0)
(1.05542 -0.00917943 0)
(0.959012 0.000922217 0)
(1.04264 0.00695505 0)
(0.976925 0.00540961 0)
(1.02547 -0.00114161 0)
(0.988459 -0.00687668 0)
(1.01847 -0.00977465 0)
(0.97668 -0.0030325 0)
(1.01452 0.00107996 0)
(0.994927 0.00431858 0)
(0.992899 0.00533547 0)
(0.994178 0.0080416 0)
(0.996993 -0.00145089 0)
(0.989942 0.00644869 0)
(0.993061 -0.00804312 0)
(0.955993 -0.00880365 0)
(1.06024 -0.0085622 0)
(0.966139 0.0104263 0)
(1.04553 0.00825915 0)
(0.987702 -0.00364837 0)
(1.03019 -0.00909342 0)
(0.980469 0.00101016 0)
(1.02453 0.00679089 0)
(0.997191 0.00554403 0)
(1.01423 -0.00123642 0)
(0.999953 -0.00672383 0)
(1.00595 -0.00960121 0)
(0.988913 -0.00294228 0)
(1.00329 0.000758125 0)
(1.00007 0.0046151 0)
(0.996073 0.00541494 0)
(0.998493 0.00795599 0)
(0.999129 -0.00131701 0)
(0.994306 0.00652278 0)
(0.993115 -0.00704285 0)
(0.974131 -0.00886446 0)
(1.03145 -0.00865983 0)
(0.986088 0.010422 0)
(1.03332 0.00817874 0)
(1.00138 -0.00348962 0)
(1.01235 -0.00901691 0)
(0.992648 0.00102613 0)
(1.01527 0.00661621 0)
(1.00751 0.0056195 0)
(1.0103 -0.00122411 0)
(1.00366 -0.00651738 0)
(1.00042 -0.00944968 0)
(0.992686 -0.00287876 0)
(0.999137 0.000544987 0)
(1.00053 0.00468175 0)
(0.998849 0.00542134 0)
(1.00215 0.00789209 0)
(1.00065 -0.00109592 0)
(0.996914 0.00648864 0)
(0.994043 -0.00572873 0)
(0.98778 -0.00884383 0)
(1.00987 -0.0087843 0)
(0.997039 0.010299 0)
(1.02527 0.00812912 0)
(1.00788 -0.00326481 0)
(1.00184 -0.00893025 0)
(0.997227 0.000955869 0)
(1.01079 0.00643624 0)
(1.01115 0.00564748 0)
(1.009 -0.00114027 0)
(1.00427 -0.00626364 0)
(0.997727 -0.0093037 0)
(0.993159 -0.00282213 0)
(0.997129 0.000356708 0)
(0.999621 0.00462515 0)
(0.999737 0.00535518 0)
(1.00384 0.00781614 0)
(1.00145 -0.000783995 0)
(0.997772 0.00642438 0)
(0.994985 -0.00424991 0)
(0.996814 -0.00876583 0)
(0.996535 -0.00889018 0)
(0.999678 0.0100817 0)
(1.01936 0.00809452 0)
(1.0098 -0.00301321 0)
(0.996617 -0.00882477 0)
(0.997338 0.000834201 0)
(1.00763 0.00624729 0)
(1.01094 0.00564067 0)
(1.00794 -0.00103352 0)
(1.00398 -0.00597763 0)
(0.99631 -0.00914667 0)
(0.992541 -0.00277346 0)
(0.995533 0.000181306 0)
(0.998079 0.0045223 0)
(0.999077 0.00524978 0)
(1.00359 0.00769491 0)
(1.00116 -0.000389559 0)
(0.997506 0.00632311 0)
(0.995389 -0.00277849 0)
(1.00212 -0.0086566 0)
(0.989839 -0.00894467 0)
(0.997024 0.00981678 0)
(1.01439 0.00804541 0)
(1.00949 -0.00277061 0)
(0.994474 -0.0086972 0)
(0.995577 0.000707309 0)
(1.00449 0.00605119 0)
(1.00885 0.0056012 0)
(1.00663 -0.000939565 0)
(1.00348 -0.00568375 0)
(0.995693 -0.0089712 0)
(0.991679 -0.00271849 0)
(0.994008 3.91409e-05 0)
(0.996236 0.00438955 0)
(0.997508 0.00513972 0)
(1.00215 0.00752577 0)
(1.00008 5.16221e-05 0)
(0.996643 0.00615751 0)
(0.995313 -0.00139954 0)
(1.0049 -0.00853441 0)
(0.98726 -0.00893672 0)
(0.99243 0.00954755 0)
(1.01019 0.00795652 0)
(1.00844 -0.00256033 0)
(0.993859 -0.00854791 0)
(0.993528 0.000605798 0)
(1.00151 0.00585264 0)
(1.00629 0.00552848 0)
(1.00526 -0.000876643 0)
(1.003 -0.0054025 0)
(0.995586 -0.00877217 0)
(0.990934 -0.00264504 0)
(0.992686 -6.24618e-05 0)
(0.994491 0.00423479 0)
(0.995728 0.00505351 0)
(1.00036 0.00730556 0)
(0.998784 0.000509166 0)
(0.995644 0.00593084 0)
(0.995001 -0.000153747 0)
(1.00618 -0.00840798 0)
(0.986672 -0.00887153 0)
(0.988212 0.00929498 0)
(1.00697 0.00782373 0)
(1.00738 -0.00238727 0)
(0.993864 -0.00837975 0)
(0.991939 0.000538756 0)
(0.999165 0.00565463 0)
(1.00411 0.00542566 0)
(1.00412 -0.000846886 0)
(1.00258 -0.00514235 0)
(0.995726 -0.00854932 0)
(0.990454 -0.00255354 0)
(0.991738 -0.000123315 0)
(0.993169 0.00406611 0)
(0.994261 0.00499987 0)
(0.998801 0.00703725 0)
(0.997699 0.000971685 0)
(0.994834 0.00569142 0)
(0.994682 0.000966804 0)
(1.00668 -0.00827885 0)
(0.986813 -0.00876401 0)
(0.985321 0.0090626 0)
(1.00483 0.00765342 0)
(1.00657 -0.00224526 0)
(0.994037 -0.00819657 0)
(0.990999 0.000501205 0)
(0.997657 0.00545739 0)
(1.00262 0.00529868 0)
(1.0033 -0.000841125 0)
(1.00224 -0.00490285 0)
(0.995921 -0.0083057 0)
(0.99025 -0.00244926 0)
(0.991203 -0.000145342 0)
(0.992377 0.00388206 0)
(0.993321 0.00497556 0)
(0.997702 0.00673228 0)
(0.996979 0.00143871 0)
(0.994335 0.0054641 0)
(0.994482 0.0019385 0)
(1.0068 -0.00814539 0)
(0.987126 -0.00863141 0)
(0.98375 0.00884601 0)
(1.00357 0.00745592 0)
(1.00602 -0.00212335 0)
(0.994203 -0.00800218 0)
(0.990598 0.000482652 0)
(0.996867 0.00526005 0)
(1.00175 0.0051537 0)
(1.00276 -0.000846518 0)
(1.00198 -0.00468069 0)
(0.996086 -0.00804139 0)
(0.990256 -0.00234521 0)
(0.991 -0.000127811 0)
(0.992027 0.00367648 0)
(0.992855 0.00497431 0)
(0.997038 0.00641198 0)
(0.996577 0.00187804 0)
(0.994103 0.00527621 0)
(0.994429 0.00274062 0)
(1.00676 -0.00800587 0)
(0.987442 -0.008487 0)
(0.983093 0.00863953 0)
(1.0029 0.00724006 0)
(1.00564 -0.00201244 0)
(0.994326 -0.00779945 0)
(0.990539 0.00047343 0)
(0.996545 0.00506191 0)
(1.00128 0.00499641 0)
(1.0024 -0.000853384 0)
(1.00176 -0.00447283 0)
(0.996207 -0.00775566 0)
(0.990389 -0.00225197 0)
(0.991006 -7.47595e-05 0)
(0.991958 0.00344956 0)
(0.992702 0.00499604 0)
(0.996669 0.00608681 0)
(0.99638 0.00227111 0)
(0.99404 0.00516109 0)
(0.994482 0.00338924 0)
(1.00664 -0.00785904 0)
(0.987737 -0.0083391 0)
(0.982944 0.00843889 0)
(1.00254 0.00701168 0)
(1.00537 -0.00190675 0)
(0.99442 -0.00758991 0)
(0.990656 0.00046736 0)
(0.996467 0.00486293 0)
(1.00101 0.00483033 0)
(1.00213 -0.000854937 0)
(1.00157 -0.00427885 0)
(0.9963 -0.00744752 0)
(0.990584 -0.00217686 0)
(0.99112 4.89851e-06 0)
(0.992037 0.00321047 0)
(0.992711 0.00502793 0)
(0.996458 0.00577866 0)
(0.996293 0.0026205 0)
(0.994062 0.00512064 0)
(0.99459 0.00389766 0)
(1.0065 -0.00770414 0)
(0.988022 -0.00819259 0)
(0.983033 0.00824235 0)
(1.00232 0.00677367 0)
(1.00513 -0.00180272 0)
(0.9945 -0.00737508 0)
(0.990851 0.00046158 0)
(0.996496 0.00466359 0)
(1.00083 0.00465627 0)
(1.0019 -0.000847668 0)
(1.0014 -0.00409849 0)
(0.996379 -0.00711748 0)
(0.990807 -0.0021229 0)
(0.991279 0.000107027 0)
(0.992183 0.00296517 0)
(0.992787 0.00505125 0)
(0.99632 0.00552087 0)
(0.99626 0.00290913 0)
(0.994122 0.00513926 0)
(0.994717 0.00430626 0)
(1.00634 -0.00754077 0)
(0.988307 -0.00805013 0)
(0.98322 0.00804995 0)
(1.00216 0.00652715 0)
(1.00492 -0.00169902 0)
(0.994576 -0.00715527 0)
(0.991077 0.000454156 0)
(0.996563 0.00446484 0)
(1.00068 0.0044738 0)
(1.00169 -0.000827307 0)
(1.00123 -0.00393505 0)
(0.996453 -0.00676421 0)
(0.991041 -0.00208634 0)
(0.991452 0.000226769 0)
(0.992355 0.00272067 0)
(0.992891 0.00505584 0)
(0.996213 0.00532117 0)
(0.996253 0.00313086 0)
(0.994201 0.00519575 0)
(0.994844 0.00464489 0)
(1.00618 -0.00736864 0)
(0.988595 -0.00791309 0)
(0.983448 0.00786188 0)
(1.00201 0.00627329 0)
(1.0047 -0.00159647 0)
(0.994651 -0.00692961 0)
(0.991317 0.000443387 0)
(0.996642 0.00426923 0)
(1.00054 0.00428115 0)
(1.00147 -0.000791245 0)
(1.00107 -0.00378862 0)
(0.996523 -0.00639328 0)
(0.991282 -0.00205713 0)
(0.991628 0.000355169 0)
(0.992541 0.00249415 0)
(0.993008 0.00502555 0)
(0.99612 0.00518327 0)
(0.996263 0.00330014 0)
(0.994294 0.00526537 0)
(0.994966 0.00494037 0)
(1.00601 -0.00718768 0)
(0.988888 -0.00778181 0)
(0.983695 0.0076785 0)
(1.00187 0.00601226 0)
(1.00449 -0.00149438 0)
(0.994727 -0.00669926 0)
(0.991565 0.00042894 0)
(0.996725 0.00407844 0)
(1.0004 0.00407899 0)
(1.00125 -0.000741564 0)
(1.00091 -0.00365676 0)
(0.996593 -0.00600969 0)
(0.991528 -0.00203848 0)
(0.991804 0.000480684 0)
(0.992732 0.00230268 0)
(0.993135 0.00495174 0)
(0.996036 0.00510346 0)
(0.996284 0.00342605 0)
(0.994402 0.00532342 0)
(0.995081 0.00520731 0)
(1.00584 -0.00699764 0)
(0.989187 -0.0076572 0)
(0.983954 0.00750104 0)
(1.00174 0.00574338 0)
(1.00428 -0.00139279 0)
(0.994802 -0.00646382 0)
(0.991819 0.000409716 0)
(0.99681 0.00389337 0)
(1.00027 0.00386626 0)
(1.00103 -0.000676266 0)
(1.00075 -0.00353858 0)
(0.996661 -0.00561831 0)
(0.991776 -0.00202214 0)
(0.991981 0.000593854 0)
(0.992926 0.00215255 0)
(0.993274 0.00483946 0)
(0.99596 0.00505947 0)
(0.99631 0.00352839 0)
(0.994525 0.005356 0)
(0.99519 0.00543967 0)
(1.00567 -0.00679836 0)
(0.989491 -0.00753985 0)
(0.984221 0.00732931 0)
(1.0016 0.00546858 0)
(1.00407 -0.00129421 0)
(0.994877 -0.00622133 0)
(0.992077 0.00038257 0)
(0.996897 0.00371726 0)
(1.00014 0.00363997 0)
(1.00081 -0.000594267 0)
(1.0006 -0.0034315 0)
(0.996729 -0.00522466 0)
(0.992027 -0.00198876 0)
(0.992159 0.000682512 0)
(0.993121 0.00205044 0)
(0.993424 0.00470096 0)
(0.995894 0.0050313 0)
(0.996341 0.00363692 0)
(0.994662 0.00536475 0)
(0.995293 0.00563904 0)
(1.00549 -0.00659002 0)
(0.989801 -0.00742937 0)
(0.984496 0.00716282 0)
(1.00146 0.00518884 0)
(1.00385 -0.00119888 0)
(0.994952 -0.00597237 0)
(0.992339 0.000346762 0)
(0.996984 0.00355215 0)
(1.00001 0.00340171 0)
(1.00059 -0.000498509 0)
(1.00045 -0.00333064 0)
(0.996796 -0.0048361 0)
(0.992277 -0.00193775 0)
(0.992342 0.000740081 0)
(0.993315 0.00198996 0)
(0.993584 0.00455273 0)
(0.99584 0.00499993 0)
(0.996373 0.00374603 0)
(0.994809 0.00535144 0)
(0.995391 0.0058125 0)
(1.00531 -0.0063723 0)
(0.990119 -0.00732696 0)
(0.984777 0.00700313 0)
(1.00133 0.004904 0)
(1.00364 -0.00110827 0)
(0.995025 -0.00571465 0)
(0.992603 0.00030194 0)
(0.997071 0.00339849 0)
(0.999882 0.00315356 0)
(1.00037 -0.000395281 0)
(1.0003 -0.00322831 0)
(0.996865 -0.00446635 0)
(0.992525 -0.00185822 0)
(0.992529 0.000768146 0)
(0.99351 0.00195478 0)
(0.993752 0.00440693 0)
(0.995799 0.0049565 0)
(0.996408 0.00384792 0)
(0.994969 0.00532869 0)
(0.995485 0.00596343 0)
(1.00512 -0.00614548 0)
(0.990445 -0.00723193 0)
(0.985065 0.00684876 0)
(1.0012 0.00461723 0)
(1.00344 -0.00102429 0)
(0.995096 -0.00544836 0)
(0.99287 0.000245776 0)
(0.997159 0.00325951 0)
(0.99976 0.00289714 0)
(1.00015 -0.00029028 0)
(1.00016 -0.00312003 0)
(0.996935 -0.00412223 0)
(0.992769 -0.00173856 0)
(0.99272 0.00077112 0)
(0.993706 0.00194519 0)
(0.993928 0.0042702 0)
(0.995772 0.00490679 0)
(0.996445 0.00394589 0)
(0.995138 0.00530122 0)
(0.995575 0.00608532 0)
(1.00494 -0.00590987 0)
(0.990779 -0.0071439 0)
(0.985359 0.00669878 0)
(1.00107 0.00433137 0)
(1.00324 -0.000947914 0)
(0.995166 -0.0051721 0)
(0.993138 0.000176748 0)
(0.997248 0.00313265 0)
(0.999643 0.00263882 0)
(0.999939 -0.000185735 0)
(1.00002 -0.00299608 0)
(0.997009 -0.00381539 0)
(0.993008 -0.0015849 0)
(0.992915 0.000767505 0)
(0.993906 0.00194021 0)
(0.994109 0.00415565 0)
(0.995758 0.00485252 0)
(0.996484 0.00402597 0)
(0.995316 0.00525728 0)
(0.995665 0.0061685 0)
(1.00475 -0.00566524 0)
(0.99112 -0.0070638 0)
(0.98566 0.00655403 0)
(1.00094 0.00404584 0)
(1.00304 -0.000884862 0)
(0.995234 -0.00488191 0)
(0.993406 9.26643e-05 0)
(0.997336 0.00301731 0)
(0.99953 0.00238288 0)
(0.999729 -8.69129e-05 0)
(0.999873 -0.00285137 0)
(0.997088 -0.00354354 0)
(0.993243 -0.0014157 0)
(0.993109 0.000766081 0)
(0.994111 0.00191594 0)
(0.994296 0.00405826 0)
(0.995755 0.00480062 0)
(0.996524 0.00407949 0)
(0.995501 0.00519441 0)
(0.995759 0.00621258 0)
(1.00455 -0.00541243 0)
(0.99147 -0.0069902 0)
(0.985967 0.00641287 0)
(1.00082 0.00376228 0)
(1.00285 -0.000833517 0)
(0.995301 -0.00458121 0)
(0.993673 -4.27805e-06 0)
(0.997424 0.00291298 0)
(0.999422 0.00212916 0)
(0.999526 -2.90788e-06 0)
(0.999731 -0.00268314 0)
(0.997171 -0.00330661 0)
(0.993474 -0.00122685 0)
(0.993302 0.000774276 0)
(0.994321 0.00188232 0)
(0.994492 0.00396348 0)
(0.995761 0.00475985 0)
(0.996563 0.00411232 0)
(0.995695 0.00511492 0)
(0.995859 0.00622494 0)
(1.00436 -0.00515154 0)
(0.991828 -0.006923 0)
(0.986283 0.0062733 0)
(1.00069 0.00348809 0)
(1.00267 -0.000797659 0)
(0.995366 -0.00426648 0)
(0.99394 -0.000113015 0)
(0.997511 0.00281468 0)
(0.999317 0.00188744 0)
(0.999332 5.82977e-05 0)
(0.999587 -0.00248292 0)
(0.997258 -0.00309751 0)
(0.993704 -0.0010334 0)
(0.993489 0.000814514 0)
(0.994534 0.00184065 0)
(0.994698 0.00386434 0)
(0.995777 0.004733 0)
(0.996598 0.00413667 0)
(0.995894 0.00501248 0)
(0.99597 0.00620842 0)
(1.00416 -0.00488324 0)
(0.992193 -0.00686086 0)
(0.986605 0.0061332 0)
(1.00056 0.00322687 0)
(1.0025 -0.000782128 0)
(0.99543 -0.00393997 0)
(0.994205 -0.000230419 0)
(0.997597 0.00271635 0)
(0.999216 0.00166885 0)
(0.99915 9.14186e-05 0)
(0.999444 -0.00225137 0)
(0.997348 -0.00290211 0)
(0.993936 -0.000856848 0)
(0.99367 0.000888649 0)
(0.994747 0.00179428 0)
(0.994917 0.00374988 0)
(0.995803 0.0047143 0)
(0.996626 0.00417087 0)
(0.996098 0.00488119 0)
(0.996096 0.00615098 0)
(1.00396 -0.0046086 0)
(0.992565 -0.00680233 0)
(0.986936 0.0059931 0)
(1.00043 0.00297713 0)
(1.00234 -0.00078549 0)
(0.995493 -0.00359892 0)
(0.994467 -0.000354601 0)
(0.997684 0.00261022 0)
(0.999116 0.00148052 0)
(0.998981 9.56381e-05 0)
(0.999302 -0.00200442 0)
(0.997436 -0.00271136 0)
(0.994172 -0.000704061 0)
(0.993844 0.000985062 0)
(0.994955 0.00176856 0)
(0.995149 0.00361334 0)
(0.995845 0.00468401 0)
(0.996642 0.00423021 0)
(0.996299 0.0047394 0)
(0.996241 0.00604237 0)
(1.00376 -0.00432774 0)
(0.992944 -0.00674887 0)
(0.987276 0.00585064 0)
(1.0003 0.0027447 0)
(1.00219 -0.000810906 0)
(0.995554 -0.0032472 0)
(0.994725 -0.000477184 0)
(0.997772 0.0024921 0)
(0.999018 0.00132584 0)
(0.998826 6.68577e-05 0)
(0.999163 -0.0017486 0)
(0.997522 -0.00251398 0)
(0.994413 -0.000587298 0)
(0.994016 0.00109361 0)
(0.995154 0.00176648 0)
(0.99539 0.00345815 0)
(0.995908 0.00462244 0)
(0.996648 0.0043106 0)
(0.996488 0.00462091 0)
(0.99641 0.0058825 0)
(1.00356 -0.00404169 0)
(0.99333 -0.00669777 0)
(0.987624 0.00569958 0)
(1.00017 0.00253796 0)
(1.00206 -0.000858433 0)
(0.995614 -0.00289267 0)
(0.994978 -0.000594334 0)
(0.997863 0.00235401 0)
(0.998918 0.00121289 0)
(0.998685 1.30704e-05 0)
(0.999032 -0.0014956 0)
(0.997601 -0.00229792 0)
(0.994659 -0.000495036 0)
(0.994189 0.00120433 0)
(0.99534 0.00179169 0)
(0.995637 0.00330036 0)
(0.995998 0.00452592 0)
(0.996651 0.00438276 0)
(0.996656 0.00454504 0)
(0.996595 0.00568328 0)
(1.00335 -0.00375276 0)
(0.993721 -0.00664439 0)
(0.987983 0.00553933 0)
(1.00003 0.00235383 0)
(1.00194 -0.000931243 0)
(0.995673 -0.002533 0)
(0.995222 -0.000700705 0)
(0.99796 0.00219168 0)
(0.998818 0.00114385 0)
(0.998556 -5.46664e-05 0)
(0.998911 -0.00126215 0)
(0.997673 -0.00205337 0)
(0.994909 -0.000421747 0)
(0.994365 0.00129941 0)
(0.995512 0.001855 0)
(0.995881 0.00315586 0)
(0.996114 0.00439832 0)
(0.99666 0.00441817 0)
(0.996799 0.00450888 0)
(0.996789 0.00547698 0)
(1.00315 -0.00346131 0)
(0.994117 -0.00658908 0)
(0.988351 0.00536689 0)
(0.999898 0.00219871 0)
(1.00183 -0.00102548 0)
(0.995734 -0.00217705 0)
(0.995456 -0.000785992 0)
(0.998063 0.00200355 0)
(0.998717 0.00111206 0)
(0.998439 -0.000126551 0)
(0.998804 -0.00106025 0)
(0.997736 -0.00178356 0)
(0.995157 -0.000364691 0)
(0.994552 0.00135969 0)
(0.995672 0.0019382 0)
(0.996117 0.00303786 0)
(0.99625 0.00424694 0)
(0.996681 0.00441777 0)
(0.996922 0.00448851 0)
(0.996979 0.00529582 0)
(1.00295 -0.00316839 0)
(0.994516 -0.0065309 0)
(0.988731 0.0051808 0)
(0.999758 0.0020759 0)
(1.00174 -0.00114273 0)
(0.995796 -0.00183077 0)
(0.995675 -0.00084416 0)
(0.998176 0.00178025 0)
(0.998618 0.00110864 0)
(0.998327 -0.000186646 0)
(0.998716 -0.000900342 0)
(0.997792 -0.0014954 0)
(0.995399 -0.000299197 0)
(0.994749 0.0013802 0)
(0.995825 0.00202279 0)
(0.996339 0.00295853 0)
(0.996404 0.00407883 0)
(0.996719 0.00438202 0)
(0.99703 0.00445755 0)
(0.997161 0.00514399 0)
(1.00275 -0.00287715 0)
(0.994918 -0.0064635 0)
(0.989123 0.00497662 0)
(0.999614 0.0019821 0)
(1.00166 -0.00127742 0)
(0.995864 -0.00150295 0)
(0.995876 -0.000868451 0)
(0.998298 0.00152559 0)
(0.998524 0.00112508 0)
(0.998219 -0.000220496 0)
(0.998648 -0.000787875 0)
(0.997845 -0.00120474 0)
(0.995627 -0.000210588 0)
(0.994957 0.00137108 0)
(0.99598 0.002092 0)
(0.996545 0.00291653 0)
(0.996565 0.00391613 0)
(0.996775 0.00430648 0)
(0.997131 0.00440837 0)
(0.997337 0.00500407 0)
(1.00256 -0.00258885 0)
(0.995321 -0.00638445 0)
(0.989528 0.00474956 0)
(0.999465 0.00192556 0)
(1.0016 -0.00142271 0)
(0.99594 -0.00120093 0)
(0.996057 -0.00085341 0)
(0.998428 0.00125043 0)
(0.998439 0.00114572 0)
(0.99811 -0.00021465 0)
(0.998598 -0.000718341 0)
(0.9979 -0.000928391 0)
(0.99584 -9.1503e-05 0)
(0.99517 0.00134608 0)
(0.996139 0.00212752 0)
(0.996737 0.00289407 0)
(0.996726 0.00378113 0)
(0.996845 0.00420285 0)
(0.99723 0.00434059 0)
(0.997513 0.00485719 0)
(1.00236 -0.00230529 0)
(0.995723 -0.0062931 0)
(0.989947 0.00450011 0)
(0.999311 0.00190167 0)
(1.00155 -0.00157429 0)
(0.996027 -0.000932103 0)
(0.996215 -0.000796091 0)
(0.998566 0.000956862 0)
(0.99837 0.0011595 0)
(0.997996 -0.000164726 0)
(0.998565 -0.000678659 0)
(0.997965 -0.000682326 0)
(0.996036 7.02249e-05 0)
(0.995382 0.00132217 0)
(0.996307 0.00212416 0)
(0.996923 0.00287583 0)
(0.996884 0.00368083 0)
(0.996924 0.00409103 0)
(0.997327 0.00424936 0)
(0.997692 0.00469122 0)
(1.00217 -0.00202853 0)
(0.996121 -0.00618573 0)
(0.990381 0.0042249 0)
(0.999152 0.00190538 0)
(1.00151 -0.00172329 0)
(0.996127 -0.000704318 0)
(0.996349 -0.000695813 0)
(0.998707 0.000659525 0)
(0.998321 0.00115545 0)
(0.997878 -6.42753e-05 0)
(0.998541 -0.000656088 0)
(0.998045 -0.000482605 0)
(0.996218 0.000261364 0)
(0.995582 0.00131655 0)
(0.996482 0.00208288 0)
(0.997109 0.00284238 0)
(0.997037 0.00360581 0)
(0.997003 0.00399115 0)
(0.997417 0.00414198 0)
(0.997874 0.00450637 0)
(1.00199 -0.00176173 0)
(0.996513 -0.00605688 0)
(0.99083 0.00392294 0)
(0.998991 0.00193895 0)
(1.00148 -0.00186467 0)
(0.996246 -0.000524356 0)
(0.996458 -0.00055397 0)
(0.998847 0.000371279 0)
(0.998299 0.00111686 0)
(0.997756 7.59062e-05 0)
(0.998521 -0.000631364 0)
(0.998145 -0.000338656 0)
(0.996391 0.000459651 0)
(0.995765 0.0013413 0)
(0.996659 0.00201667 0)
(0.997303 0.00277869 0)
(0.997191 0.00354087 0)
(0.997079 0.00391506 0)
(0.997494 0.00403835 0)
(0.998052 0.00431564 0)
(1.00181 -0.00150651 0)
(0.996897 -0.00590401 0)
(0.991296 0.00359568 0)
(0.998827 0.00199201 0)
(1.00145 -0.00198646 0)
(0.996386 -0.000397229 0)
(0.996543 -0.000380397 0)
(0.998981 0.000109696 0)
(0.998307 0.00103707 0)
(0.997634 0.000243163 0)
(0.998496 -0.000586877 0)
(0.998265 -0.000252945 0)
(0.996564 0.000649515 0)
(0.995925 0.0014097 0)
(0.99683 0.00195008 0)
(0.997507 0.00268072 0)
(0.997354 0.00346915 0)
(0.997153 0.00386083 0)
(0.997552 0.00394904 0)
(0.998212 0.00413489 0)
(1.00163 -0.00126555 0)
(0.99727 -0.00572438 0)
(0.991776 0.00324543 0)
(0.998663 0.00205775 0)
(1.00142 -0.00207997 0)
(0.996548 -0.000325855 0)
(0.996608 -0.000180416 0)
(0.999102 -0.0001244 0)
(0.998347 0.000908791 0)
(0.997518 0.000428358 0)
(0.998459 -0.000506038 0)
(0.998402 -0.000216624 0)
(0.996749 0.000804553 0)
(0.996064 0.00151483 0)
(0.996982 0.00190131 0)
(0.997719 0.00254946 0)
(0.997535 0.00337176 0)
(0.997229 0.0038224 0)
(0.99759 0.00387912 0)
(0.998341 0.00398133 0)
(1.00146 -0.00104085 0)
(0.997628 -0.00551542 0)
(0.992272 0.00287244 0)
(0.998501 0.00213214 0)
(1.00139 -0.00213746 0)
(0.996734 -0.000312111 0)
(0.996655 3.73514e-05 0)
(0.999202 -0.000313911 0)
(0.998424 0.000740308 0)
(0.997417 0.000609928 0)
(0.998403 -0.00038054 0)
(0.998549 -0.000209792 0)
(0.996953 0.000911039 0)
(0.996189 0.00164192 0)
(0.997105 0.00188624 0)
(0.997929 0.00240262 0)
(0.997743 0.00323451 0)
(0.997318 0.00378478 0)
(0.99761 0.00383386 0)
(0.998433 0.00385564 0)
(1.0013 -0.000834348 0)
(0.997967 -0.00527669 0)
(0.992781 0.00248374 0)
(0.998346 0.00220297 0)
(1.00134 -0.00215296 0)
(0.996945 -0.000351254 0)
(0.996692 0.000259504 0)
(0.999277 -0.000439212 0)
(0.998532 0.000543343 0)
(0.99734 0.000772186 0)
(0.998326 -0.000209148 0)
(0.998697 -0.000216848 0)
(0.997182 0.000956005 0)
(0.996309 0.00176901 0)
(0.997195 0.0019114 0)
(0.998125 0.00226592 0)
(0.997979 0.00305479 0)
(0.997433 0.00372285 0)
(0.997614 0.00381759 0)
(0.998487 0.00374659 0)
(1.00115 -0.000647914 0)
(0.998287 -0.00500761 0)
(0.993301 0.00208554 0)
(0.9982 0.00226023 0)
(1.00128 -0.00211885 0)
(0.99718 -0.000434135 0)
(0.996725 0.000462088 0)
(0.999319 -0.000495293 0)
(0.998669 0.000323159 0)
(0.997296 0.000892223 0)
(0.998227 -1.60856e-06 0)
(0.998831 -0.000214615 0)
(0.997438 0.000938024 0)
(0.996438 0.00187646 0)
(0.997251 0.00197628 0)
(0.998292 0.00216024 0)
(0.998236 0.00284537 0)
(0.99759 0.00361143 0)
(0.997614 0.00382289 0)
(0.998503 0.00366292 0)
(1.00101 -0.000482525 0)
(0.998583 -0.00470961 0)
(0.993828 0.00168335 0)
(0.998069 0.00229854 0)
(1.00121 -0.00203509 0)
(0.997434 -0.000549147 0)
(0.996763 0.000634984 0)
(0.999327 -0.000484298 0)
(0.998823 0.000107675 0)
(0.997294 0.000961238 0)
(0.998114 0.000233575 0)
(0.998941 -0.000180773 0)
(0.997718 0.000868745 0)
(0.996591 0.00194377 0)
(0.997282 0.00206836 0)
(0.998415 0.00209741 0)
(0.998495 0.00263267 0)
(0.997801 0.0034382 0)
(0.997627 0.00381924 0)
(0.998477 0.00362438 0)
(1.00088 -0.000339505 0)
(0.998852 -0.00438518 0)
(0.99436 0.00128654 0)
(0.997957 0.0023091 0)
(1.00112 -0.00190201 0)
(0.997702 -0.000686065 0)
(0.996813 0.000766449 0)
(0.999302 -0.000412535 0)
(0.998987 -0.000101644 0)
(0.997339 0.000968719 0)
(0.997993 0.000479029 0)
(0.999013 -0.000106244 0)
(0.998011 0.00076874 0)
(0.996779 0.00195642 0)
(0.9973 0.00216829 0)
(0.998491 0.00208029 0)
(0.998737 0.00244633 0)
(0.998062 0.00321311 0)
(0.997683 0.00376662 0)
(0.998414 0.00363585 0)
(1.00076 -0.000218614 0)
(0.999094 -0.00404032 0)
(0.99489 0.000905486 0)
(0.997868 0.00228173 0)
(1.001 -0.00172523 0)
(0.997977 -0.000830046 0)
(0.996884 0.000844376 0)
(0.999243 -0.000286236 0)
(0.999146 -0.000290715 0)
(0.997436 0.000912333 0)
(0.99788 0.000713966 0)
(0.999042 1.66928e-05 0)
(0.998304 0.000665191 0)
(0.997007 0.00191026 0)
(0.99732 0.00225608 0)
(0.99852 0.00210257 0)
(0.998941 0.00230359 0)
(0.998355 0.0029637 0)
(0.997807 0.00363648 0)
(0.99833 0.00367126 0)
(1.00064 -0.000119548 0)
(0.999306 -0.00368051 0)
(0.995413 0.000547649 0)
(0.997806 0.00221573 0)
(1.00086 -0.00151231 0)
(0.998253 -0.000963821 0)
(0.996981 0.000868805 0)
(0.999157 -0.000132941 0)
(0.99929 -0.000419335 0)
(0.997583 0.000807046 0)
(0.997788 0.00091468 0)
(0.999026 0.00018395 0)
(0.998578 0.000577235 0)
(0.997276 0.00180771 0)
(0.99736 0.00231296 0)
(0.998512 0.00215264 0)
(0.999093 0.00221052 0)
(0.998651 0.00272838 0)
(0.99801 0.00342877 0)
(0.998264 0.0036796 0)
(1.00054 -4.12792e-05 0)
(0.999489 -0.00331283 0)
(0.995924 0.000222816 0)
(0.997776 0.00211024 0)
(1.00071 -0.00127486 0)
(0.998519 -0.00107521 0)
(0.997107 0.000836505 0)
(0.999055 3.15875e-05 0)
(0.999408 -0.000488775 0)
(0.997771 0.000668055 0)
(0.997732 0.0010597 0)
(0.998971 0.000383567 0)
(0.998818 0.000525402 0)
(0.997579 0.0016639 0)
(0.997436 0.0023229 0)
(0.998481 0.00221232 0)
(0.999191 0.00216004 0)
(0.998921 0.00253487 0)
(0.998276 0.00317391 0)
(0.998262 0.00361185 0)
(1.00045 1.79315e-05 0)
(0.999641 -0.00294476 0)
(0.996416 -5.92618e-05 0)
(0.997777 0.00196498 0)
(1.00054 -0.00102531 0)
(0.998767 -0.00115245 0)
(0.997263 0.000756361 0)
(0.998946 0.000201254 0)
(0.999494 -0.000496946 0)
(0.99799 0.000519497 0)
(0.997721 0.00114278 0)
(0.99889 0.000592886 0)
(0.999007 0.000520725 0)
(0.9979 0.00150153 0)
(0.997557 0.00227813 0)
(0.998444 0.00226514 0)
(0.999241 0.00214203 0)
(0.999146 0.00238991 0)
(0.998573 0.00291848 0)
(0.998351 0.00345051 0)
(1.00037 6.04614e-05 0)
(0.999765 -0.00258315 0)
(0.996883 -0.000297937 0)
(0.997812 0.00178636 0)
(1.00037 -0.000775723 0)
(0.99899 -0.0011867 0)
(0.997449 0.000641661 0)
(0.998841 0.000357976 0)
(0.999543 -0.000444985 0)
(0.998223 0.000374989 0)
(0.997761 0.00116258 0)
(0.998798 0.000790806 0)
(0.999142 0.000566209 0)
(0.99822 0.00134604 0)
(0.997727 0.0021829 0)
(0.998418 0.00229709 0)
(0.999252 0.0021459 0)
(0.999317 0.00228612 0)
(0.99886 0.00270133 0)
(0.99853 0.00322026 0)
(1.0003 8.7827e-05 0)
(0.999862 -0.002236 0)
(0.99732 -0.000489139 0)
(0.99788 0.00158103 0)
(1.0002 -0.000540277 0)
(0.999182 -0.00117476 0)
(0.997659 0.000503322 0)
(0.998753 0.000481922 0)
(0.999557 -0.000348145 0)
(0.998456 0.000250941 0)
(0.997851 0.00112722 0)
(0.998712 0.000958213 0)
(0.999222 0.000653683 0)
(0.998521 0.0012157 0)
(0.99794 0.00204668 0)
(0.998419 0.00229352 0)
(0.999236 0.00215859 0)
(0.999442 0.00221053 0)
(0.999112 0.00253283 0)
(0.998768 0.00296961 0)
(1.00024 0.000102494 0)
(0.999935 -0.00190899 0)
(0.997723 -0.00062946 0)
(0.997977 0.00135929 0)
(1.00003 -0.000328543 0)
(0.99934 -0.00111866 0)
(0.997886 0.000356964 0)
(0.99869 0.000566541 0)
(0.99954 -0.000221799 0)
(0.998676 0.0001606 0)
(0.997987 0.00105085 0)
(0.998648 0.00108017 0)
(0.999255 0.000765727 0)
(0.998784 0.00112427 0)
(0.998185 0.00188906 0)
(0.99846 0.00224781 0)
(0.999206 0.00216952 0)
(0.999525 0.00215512 0)
(0.999317 0.00240268 0)
(0.99902 0.00274353 0)
(1.00019 0.000106945 0)
(0.999986 -0.00160714 0)
(0.998087 -0.000720093 0)
(0.9981 0.00113222 0)
(0.999871 -0.000148891 0)
(0.999462 -0.00102479 0)
(0.998121 0.000216607 0)
(0.998657 0.00060775 0)
(0.9995 -8.27076e-05 0)
(0.998872 0.000110298 0)
(0.998158 0.000951958 0)
(0.998618 0.00115117 0)
(0.999254 0.000882315 0)
(0.998999 0.00107524 0)
(0.998444 0.0017311 0)
(0.998545 0.00216079 0)
(0.99918 0.00216603 0)
(0.999576 0.00211426 0)
(0.99948 0.00229542 0)
(0.999253 0.0025614 0)
(1.00015 0.000104699 0)
(1.00002 -0.00133395 0)
(0.998413 -0.00076592 0)
(0.998243 0.000909579 0)
(0.999735 -6.77547e-06 0)
(0.99955 -0.000902371 0)
(0.998354 9.335e-05 0)
(0.998657 0.000609845 0)
(0.999448 5.4888e-05 0)
(0.999036 0.000100193 0)
(0.998352 0.000847506 0)
(0.998627 0.00117314 0)
(0.999236 0.000986829 0)
(0.999165 0.00106395 0)
(0.998697 0.00159072 0)
(0.998672 0.00204314 0)
(0.999171 0.00213711 0)
(0.999601 0.00208246 0)
(0.999608 0.00220169 0)
(0.99945 0.00241726 0)
(1.00011 9.80294e-05 0)
(1.00004 -0.00109115 0)
(0.998697 -0.000772568 0)
(0.998401 0.000699681 0)
(0.999622 9.73899e-05 0)
(0.999609 -0.000762784 0)
(0.998578 -3.71239e-06 0)
(0.99869 0.000581056 0)
(0.999393 0.000181101 0)
(0.999168 0.000125042 0)
(0.998553 0.000751232 0)
(0.998676 0.00115432 0)
(0.999217 0.00106707 0)
(0.999285 0.00107829 0)
(0.998929 0.00147736 0)
(0.998829 0.00191076 0)
(0.99919 0.00207721 0)
(0.999611 0.00205085 0)
(0.999706 0.00211854 0)
(0.999612 0.0022961 0)
(1.00009 8.84157e-05 0)
(1.00005 -0.000879641 0)
(0.998943 -0.000747463 0)
(0.998568 0.000510134 0)
(0.999536 0.000166132 0)
(0.999642 -0.000616624 0)
(0.998785 -7.13509e-05 0)
(0.998754 0.000530119 0)
(0.999347 0.000286322 0)
(0.999268 0.000175283 0)
(0.998751 0.00067225 0)
(0.998758 0.00110621 0)
(0.999209 0.00111645 0)
(0.999369 0.00110337 0)
(0.99913 0.00139232 0)
(0.999001 0.00177943 0)
(0.999243 0.0019903 0)
(0.999619 0.00200918 0)
(0.999778 0.00204487 0)
(0.999743 0.00218671 0)
(1.00006 7.79214e-05 0)
(1.00005 -0.000698848 0)
(0.999151 -0.00069786 0)
(0.998737 0.000346814 0)
(0.999477 0.000201935 0)
(0.999657 -0.000473677 0)
(0.99897 -0.000109513 0)
(0.998841 0.000468265 0)
(0.999315 0.000363289 0)
(0.999341 0.000238824 0)
(0.998934 0.00061491 0)
(0.998867 0.00104127 0)
(0.999219 0.00113425 0)
(0.999428 0.00112699 0)
(0.999297 0.00133108 0)
(0.999174 0.00165903 0)
(0.999324 0.00188616 0)
(0.999637 0.00195033 0)
(0.999831 0.00197682 0)
(0.99985 0.00208455 0)
(1.00005 6.76212e-05 0)
(1.00004 -0.000546821 0)
(0.999324 -0.000631331 0)
(0.998903 0.000212499 0)
(0.999445 0.000211469 0)
(0.999661 -0.000342143 0)
(0.999131 -0.000118846 0)
(0.998946 0.000404387 0)
(0.999303 0.000412355 0)
(0.999395 0.000305553 0)
(0.999097 0.000579851 0)
(0.998993 0.000971283 0)
(0.999251 0.00112417 0)
(0.999474 0.00114115 0)
(0.999432 0.00128624 0)
(0.999336 0.00155355 0)
(0.999425 0.00177543 0)
(0.999671 0.00187377 0)
(0.999873 0.00190803 0)
(0.999936 0.00198848 0)
(1.00004 5.84934e-05 0)
(1.00003 -0.00042109 0)