/*--------------------------------*- C++ -*----------------------------------*\
| =========                 |                                                 |
| \\      /  F ield         | OpenFOAM: The Open Source CFD Toolbox           |
|  \\    /   O peration     | Version:  2106                                  |
|   \\  /    A nd           | Website:  www.openfoam.com                      |
|    \\/     M anipulation  |                                                 |
\*---------------------------------------------------------------------------*/
FoamFile
{
    version     2.0;
    format      ascii;
    arch        "LSB;label=32;scalar=64";
    class       volVectorField;
    location    "0.915";
    object      U;
}
// * * * * * * * * * * * * * * * * * * * * * * * * * * * * * * * * * * * * * //

dimensions      [0 1 -1 0 0 0 0];

internalField   nonuniform List<vector> 
9600
(
(0.847486 -0.00229262 0)
(1.1436 -0.00110834 0)
(0.857528 -0.00088538 0)
(1.19501 0.008385 0)
(0.864957 -0.00226689 0)
(1.10052 0.00772364 0)
(0.881297 -0.0105744 0)
(1.13692 -0.0018653 0)
(0.898813 -0.00889831 0)
(1.13934 0.00198544 0)
(0.910406 -0.000358829 0)
(1.13379 0.00589596 0)
(0.912688 0.00428025 0)
(1.11239 0.00525796 0)
(0.908578 0.00438858 0)
(1.1028 -0.0025514 0)
(0.890185 0.00773012 0)
(1.11299 -0.00473687 0)
(0.863309 0.00242133 0)
(1.12072 0.0011185 0)
(0.858639 -0.00230705 0)
(1.13376 -0.00102203 0)
(0.869755 -0.0015934 0)
(1.18316 0.00838572 0)
(0.886805 -0.00152412 0)
(1.08965 0.00777919 0)
(0.906751 -0.0111751 0)
(1.12239 -0.0019836 0)
(0.924771 -0.00909117 0)
(1.12379 0.00197106 0)
(0.938928 -0.00047448 0)
(1.11156 0.00595227 0)
(0.949179 0.00449827 0)
(1.07919 0.00549867 0)
(0.957757 0.00444484 0)
(1.05265 -0.00201724 0)
(0.957161 0.00758108 0)
(1.03653 -0.00456717 0)
(0.96348 0.00309844 0)
(1.00497 0.00150898 0)
(0.879172 -0.00232245 0)
(1.11393 -0.000992244 0)
(0.893322 -0.00210246 0)
(1.15856 0.00847105 0)
(0.920223 -0.000824254 0)
(1.07014 0.007677 0)
(0.938144 -0.0115881 0)
(1.09474 -0.00210174 0)
(0.95916 -0.00920025 0)
(1.09419 0.00187877 0)
(0.97817 -0.000371048 0)
(1.07739 0.00590835 0)
(0.991126 0.00503356 0)
(1.04416 0.00543689 0)
(0.997208 0.00499769 0)
(1.01878 -0.00193055 0)
(0.993831 0.00754049 0)
(1.01013 -0.00414015 0)
(0.993916 0.00342007 0)
(0.995157 0.00178426 0)
(0.905831 -0.00232491 0)
(1.08693 -0.00101576 0)
(0.922593 -0.00251842 0)
(1.12509 0.00838631 0)
(0.953903 -0.000182649 0)
(1.04757 0.00757648 0)
(0.96546 -0.0118112 0)
(1.06253 -0.00234888 0)
(0.986287 -0.00921517 0)
(1.06195 0.00165628 0)
(1.00571 -0.000144962 0)
(1.0482 0.0057551 0)
(1.01347 0.00552836 0)
(1.02474 0.00542057 0)
(1.01057 0.00546673 0)
(1.00695 -0.00183847 0)
(1.00186 0.00775978 0)
(1.0044 -0.00405482 0)
(0.996854 0.00376246 0)
(0.996101 0.0023524 0)
(0.933917 -0.00230354 0)
(1.05828 -0.00108588 0)
(0.950578 -0.00286205 0)
(1.08915 0.00818362 0)
(0.979549 0.000417227 0)
(1.02797 0.00751696 0)
(0.983931 -0.0118982 0)
(1.03514 -0.00265164 0)
(1.00011 -0.0091871 0)
(1.03672 0.00138102 0)
(1.0159 3.71313e-05 0)
(1.02932 0.00562426 0)
(1.01782 0.00587725 0)
(1.01559 0.00552686 0)
(1.01084 0.00581485 0)
(1.00258 -0.00157936 0)
(1.00097 0.00775408 0)
(1.00088 -0.00382134 0)
(0.994992 0.00404722 0)
(0.993423 0.0029537 0)
(0.958796 -0.0022612 0)
(1.03361 -0.00118512 0)
(0.972264 -0.00312207 0)
(1.05696 0.00797946 0)
(0.994279 0.00090755 0)
(1.01456 0.00748645 0)
(0.994288 -0.0118847 0)
(1.01685 -0.00291896 0)
(1.00374 -0.0091596 0)
(1.02049 0.0011275 0)
(1.01513 0.000157943 0)
(1.01767 0.00556036 0)
(1.01406 0.00612623 0)
(1.00992 0.00565516 0)
(1.0078 0.00612127 0)
(1.00021 -0.00132946 0)
(0.998708 0.00765775 0)
(0.998688 -0.00338691 0)
(0.99296 0.00411722 0)
(0.99118 0.0036464 0)
(0.977565 -0.00221039 0)
(1.01618 -0.00128249 0)
(0.986084 -0.00329177 0)
(1.03225 0.00781582 0)
(0.999978 0.00124912 0)
(1.00718 0.00746071 0)
(0.999664 -0.0117997 0)
(1.00683 -0.00312488 0)
(1.0027 -0.00912902 0)
(1.01083 0.000917604 0)
(1.0105 0.000256547 0)
(1.00988 0.00552219 0)
(1.00859 0.00630988 0)
(1.00565 0.00573741 0)
(1.00485 0.00636072 0)
(0.999037 -0.00110971 0)
(0.997113 0.00756973 0)
(0.997945 -0.00291199 0)
(0.991997 0.00409487 0)
(0.990304 0.0043715 0)
(0.98967 -0.00216273 0)
(1.00608 -0.00135735 0)
(0.993282 -0.00338103 0)
(1.01567 0.00769902 0)
(1.00053 0.00145247 0)
(1.00392 0.00740704 0)
(1.00266 -0.0116692 0)
(1.00223 -0.0032742 0)
(1.00066 -0.00906927 0)
(1.00493 0.00074113 0)
(1.00569 0.00035544 0)
(1.00431 0.00547223 0)
(1.00388 0.00644399 0)
(1.00252 0.00575126 0)
(1.00278 0.0065247 0)
(0.998656 -0.000902612 0)
(0.996549 0.00744288 0)
(0.998063 -0.00240492 0)
(0.992175 0.00404095 0)
(0.99045 0.00512499 0)
(0.996341 -0.00212424 0)
(1.00131 -0.00140681 0)
(0.996216 -0.00340449 0)
(1.00581 0.00762055 0)
(0.999335 0.00154977 0)
(1.00292 0.00730323 0)
(1.00455 -0.0115098 0)
(1.00042 -0.00337783 0)
(0.998944 -0.00896304 0)
(1.00108 0.00058722 0)
(1.00178 0.000464759 0)
(1.00029 0.00539961 0)
(1.00045 0.00653837 0)
(1.0004 0.00570157 0)
(1.00156 0.00661979 0)
(0.998673 -0.00070509 0)
(0.996684 0.00725501 0)
(0.998511 -0.00184526 0)
(0.992982 0.00395521 0)
(0.991149 0.00586808 0)
(0.999477 -0.00209482 0)
(0.999492 -0.00143665 0)
(0.996955 -0.00337771 0)
(1.00062 0.00756161 0)
(0.998282 0.00157622 0)
(1.00295 0.00714952 0)
(1.00577 -0.0113261 0)
(0.999725 -0.00344909 0)
(0.99772 -0.00880659 0)
(0.998423 0.000451405 0)
(0.998883 0.000588544 0)
(0.997465 0.00530087 0)
(0.998203 0.0065994 0)
(0.99911 0.005601 0)
(1.00092 0.00665606 0)
(0.99884 -0.000510027 0)
(0.997078 0.00701221 0)
(0.998958 -0.00123755 0)
(0.993914 0.00383389 0)
(0.991998 0.00656414 0)
(1.00074 -0.00207066 0)
(0.998915 -0.00145376 0)
(0.996755 -0.00331752 0)
(0.998254 0.00750287 0)
(0.997966 0.00156164 0)
(1.00337 0.00695993 0)
(1.00648 -0.011117 0)
(0.999355 -0.00349893 0)
(0.996828 -0.00860359 0)
(0.996571 0.000328482 0)
(0.996869 0.000725449 0)
(0.995617 0.00517415 0)
(0.996864 0.00663206 0)
(0.998431 0.00546316 0)
(1.00062 0.00664576 0)
(0.999035 -0.000303544 0)
(0.997454 0.00671833 0)
(0.999247 -0.000589863 0)
(0.994698 0.00369327 0)
(0.992746 0.00717958 0)
(1.00118 -0.00204786 0)
(0.998723 -0.00146239 0)
(0.996214 -0.00323851 0)
(0.997414 0.00742982 0)
(0.998287 0.00152674 0)
(1.00387 0.00675 0)
(1.0068 -0.0108796 0)
(0.999027 -0.00353579 0)
(0.996139 -0.00836069 0)
(0.995318 0.000209856 0)
(0.995569 0.000870599 0)
(0.994541 0.00502229 0)
(0.996183 0.0066394 0)
(0.99818 0.00530508 0)
(1.00052 0.00659378 0)
(0.999213 -6.85e-05 0)
(0.997709 0.00638838 0)
(0.999351 7.44286e-05 0)
(0.995262 0.00356222 0)
(0.993304 0.00769183 0)
(1.00133 -0.00202406 0)
(0.998616 -0.00146428 0)
(0.9956 -0.00315026 0)
(0.997281 0.0073336 0)
(0.998939 0.00148337 0)
(1.00432 0.00653107 0)
(1.00689 -0.0106126 0)
(0.998706 -0.00356578 0)
(0.995601 -0.00808568 0)
(0.994517 8.76628e-05 0)
(0.994803 0.00101979 0)
(0.994025 0.00484724 0)
(0.995933 0.00662512 0)
(0.998196 0.00514234 0)
(1.0005 0.00650622 0)
(0.999362 0.000196658 0)
(0.99785 0.00604447 0)
(0.999313 0.00073138 0)
(0.99565 0.00347126 0)
(0.993697 0.00808489 0)
(1.0014 -0.00199828 0)
(0.99853 -0.00146023 0)
(0.995052 -0.00305744 0)
(0.997406 0.00721059 0)
(0.99965 0.00143793 0)
(1.00466 0.00630924 0)
(1.00685 -0.010317 0)
(0.998427 -0.00359256 0)
(0.995201 -0.00778653 0)
(0.994051 -4.13225e-05 0)
(0.994401 0.0011686 0)
(0.993868 0.0046536 0)
(0.995924 0.00658917 0)
(0.998344 0.00498861 0)
(1.00051 0.00638495 0)
(0.999483 0.000496792 0)
(0.997925 0.00569784 0)
(0.999201 0.00138037 0)
(0.995942 0.00344756 0)
(0.993996 0.0083414 0)
(1.00144 -0.00197028 0)
(0.998465 -0.00145136 0)
(0.994644 -0.00296137 0)
(0.997581 0.00706123 0)
(1.00025 0.00139402 0)
(1.00488 0.00608594 0)
(1.00675 -0.00999514 0)
(0.998221 -0.00361938 0)
(0.994928 -0.00746707 0)
(0.993826 -0.000179145 0)
(0.994229 0.00131363 0)
(0.99391 0.00444857 0)
(0.99602 0.00653101 0)
(0.998526 0.00485273 0)
(1.00052 0.00623467 0)
(0.999574 0.000832011 0)
(0.997977 0.00536091 0)
(0.999072 0.00200521 0)
(0.996198 0.0035029 0)
(0.994269 0.00847306 0)
(1.00146 -0.0019401 0)
(0.998423 -0.00143929 0)
(0.994396 -0.00286172 0)
(0.997734 0.00688865 0)
(1.00068 0.00135307 0)
(1.00497 0.0058599 0)
(1.00662 -0.00965025 0)
(0.998097 -0.00364754 0)
(0.994769 -0.00713078 0)
(0.993771 -0.000323267 0)
(0.994193 0.00145324 0)
(0.994044 0.00423867 0)
(0.996138 0.00644994 0)
(0.998685 0.00474041 0)
(1.00051 0.00606015 0)
(0.999633 0.0011896 0)
(0.998033 0.00505442 0)
(0.998959 0.00257216 0)
(0.996454 0.00363308 0)
(0.994557 0.00850875 0)
(1.00146 -0.00190777 0)
(0.998402 -0.00142573 0)
(0.994291 -0.00275824 0)
(0.997853 0.00669695 0)
(1.00095 0.0013155 0)
(1.00495 0.00562905 0)
(1.00648 -0.0092865 0)
(0.998045 -0.00367637 0)
(0.9947 -0.00678175 0)
(0.993833 -0.000473978 0)
(0.994236 0.001583 0)
(0.99421 0.0040322 0)
(0.99624 0.00634289 0)
(0.998797 0.00465284 0)
(1.00046 0.00586729 0)
(0.99966 0.00155422 0)
(0.998098 0.00479893 0)
(0.998876 0.00306763 0)
(0.996719 0.00382201 0)
(0.994876 0.00847215 0)
(1.00146 -0.00187332 0)
(0.998398 -0.00141237 0)
(0.994293 -0.00264925 0)
(0.997946 0.00649004 0)
(1.0011 0.00128263 0)
(1.00485 0.00539195 0)
(1.00632 -0.00890782 0)
(0.998047 -0.00370634 0)
(0.994699 -0.00642281 0)
(0.993973 -0.000628576 0)
(0.994327 0.00170134 0)
(0.994379 0.00383398 0)
(0.996316 0.00621135 0)
(0.998859 0.00458875 0)
(1.00039 0.00566356 0)
(0.999659 0.00191191 0)
(0.998171 0.00459904 0)
(0.998824 0.00349528 0)
(0.99699 0.0040528 0)
(0.995222 0.00838925 0)
(1.00144 -0.00183685 0)
(0.998406 -0.00140012 0)
(0.994366 -0.00253458 0)
(0.998027 0.00627111 0)
(1.00116 0.00125478 0)
(1.00469 0.00514921 0)
(1.00615 -0.00851909 0)
(0.998084 -0.00373699 0)
(0.994744 -0.00605709 0)
(0.994164 -0.000779154 0)
(0.994447 0.00180811 0)
(0.994542 0.00364943 0)
(0.99637 0.00605698 0)
(0.998882 0.0045454 0)
(1.0003 0.00545648 0)
(0.999637 0.00225082 0)
(0.998247 0.00445289 0)
(0.998797 0.00386042 0)
(0.99726 0.00430457 0)
(0.995587 0.00828416 0)
(1.00141 -0.00179841 0)
(0.998419 -0.00138954 0)
(0.994481 -0.00241552 0)
(0.998103 0.00604287 0)
(1.00118 0.00123045 0)
(1.0045 0.00490215 0)
(1.00597 -0.00812463 0)
(0.998141 -0.00376584 0)
(0.994815 -0.00568814 0)
(0.994385 -0.000922595 0)
(0.994587 0.00189802 0)
(0.9947 0.00348429 0)
(0.996414 0.00588236 0)
(0.998879 0.00451491 0)
(1.0002 0.00525571 0)
(0.999603 0.00256695 0)
(0.998326 0.00435646 0)
(0.998793 0.00416981 0)
(0.997523 0.00456107 0)
(0.995958 0.00817631 0)
(1.00138 -0.00175788 0)
(0.998437 -0.00138145 0)
(0.994619 -0.00229201 0)
(0.998178 0.00580676 0)
(1.00117 0.00120988 0)
(1.00428 0.00464999 0)
(1.00578 -0.00772726 0)
(0.998207 -0.00379145 0)
(0.9949 -0.00531957 0)
(0.994621 -0.00105588 0)
(0.994741 0.00196978 0)
(0.994853 0.00333787 0)
(0.996456 0.00569122 0)
(0.998862 0.00449373 0)
(1.00011 0.00506501 0)
(0.999565 0.00285852 0)
(0.998409 0.00430522 0)
(0.99881 0.00443154 0)
(0.997776 0.00481048 0)
(0.996329 0.00807363 0)
(1.00135 -0.0017154 0)
(0.998456 -0.00137554 0)
(0.994769 -0.00216504 0)
(0.998251 0.0055654 0)
(1.00116 0.00119154 0)
(1.00407 0.00439615 0)
(1.00558 -0.00733056 0)
(0.998278 -0.00381204 0)
(0.994992 -0.00495305 0)
(0.994864 -0.00117831 0)
(0.994905 0.00202516 0)
(0.995004 0.00320771 0)
(0.996504 0.00548623 0)
(0.99884 0.00448147 0)
(1.00003 0.00488529 0)
(0.999529 0.00312354 0)
(0.998494 0.00429371 0)
(0.998846 0.00465098 0)
(0.99802 0.00504468 0)
(0.996693 0.00797752 0)
(1.00131 -0.00167106 0)
(0.998478 -0.00137136 0)
(0.994926 -0.00203547 0)
(0.998323 0.00532019 0)
(1.00115 0.00117386 0)
(1.00385 0.00414381 0)
(1.00537 -0.00693601 0)
(0.998352 -0.00382662 0)
(0.995087 -0.00459045 0)
(0.99511 -0.00128711 0)
(0.995078 0.00206267 0)
(0.995152 0.00309459 0)
(0.996559 0.00527072 0)
(0.998816 0.00447379 0)
(0.999957 0.00471925 0)
(0.999501 0.00336253 0)
(0.998583 0.0043201 0)
(0.998898 0.00483174 0)
(0.998254 0.00525819 0)
(0.997048 0.00788976 0)
(1.00128 -0.00162526 0)
(0.998502 -0.00136799 0)
(0.995086 -0.00190407 0)
(0.998394 0.00507214 0)
(1.00113 0.00115591 0)
(1.00363 0.0038942 0)
(1.00517 -0.00654645 0)
(0.998428 -0.00383389 0)
(0.995183 -0.00423446 0)
(0.995355 -0.00138198 0)
(0.995257 0.00208478 0)
(0.995297 0.00299989 0)
(0.996623 0.00504635 0)
(0.998794 0.00446911 0)
(0.999899 0.00457188 0)
(0.999483 0.0035717 0)
(0.998672 0.00438203 0)
(0.998966 0.00497908 0)
(0.998481 0.00544526 0)
(0.997392 0.00781043 0)
(1.00124 -0.00157795 0)
(0.998528 -0.00136597 0)
(0.99525 -0.00177349 0)
(0.998464 0.0048248 0)
(1.00111 0.00113436 0)
(1.00342 0.00364969 0)
(1.00496 -0.00616158 0)
(0.998506 -0.00383529 0)
(0.995279 -0.0038861 0)
(0.995599 -0.00146545 0)
(0.995442 0.00208919 0)
(0.995437 0.00292633 0)
(0.996697 0.00481272 0)
(0.998775 0.00446754 0)
(0.999851 0.00445101 0)
(0.999479 0.00374375 0)
(0.998764 0.00447132 0)
(0.999045 0.00510566 0)
(0.998703 0.00560166 0)
(0.997725 0.00773401 0)
(1.0012 -0.00152888 0)
(0.998556 -0.00136521 0)
(0.995417 -0.00164572 0)
(0.998534 0.00457991 0)
(1.00109 0.00110782 0)
(1.0032 0.00341079 0)
(1.00476 -0.00578397 0)
(0.998588 -0.00382915 0)
(0.995376 -0.00354104 0)
(0.99584 -0.00153655 0)
(0.995636 0.00207131 0)
(0.995571 0.00287434 0)
(0.996779 0.00457249 0)
(0.998763 0.00446484 0)
(0.999812 0.00436237 0)
(0.999489 0.00388055 0)
(0.998858 0.00457478 0)
(0.999132 0.00522305 0)
(0.998919 0.00572518 0)
(0.998052 0.00764432 0)
(1.00116 -0.00147937 0)
(0.998585 -0.00136231 0)
(0.995586 -0.00151984 0)
(0.998604 0.00433964 0)
(1.00107 0.00107718 0)
(1.003 0.00317867 0)
(1.00455 -0.00541455 0)
(0.998673 -0.00381492 0)
(0.995474 -0.00320314 0)
(0.996078 -0.00158962 0)
(0.995839 0.00203037 0)
(0.995701 0.00284547 0)
(0.996869 0.0043301 0)
(0.99876 0.0044567 0)
(0.999781 0.00430861 0)
(0.999512 0.00398859 0)
(0.998957 0.00467752 0)
(0.999225 0.00533711 0)
(0.999126 0.00582427 0)
(0.998373 0.00752962 0)
(1.00113 -0.00142888 0)
(0.998617 -0.00135879 0)
(0.995756 -0.00140001 0)
(0.998675 0.00410621 0)
(1.00104 0.00104179 0)
(1.00279 0.00295315 0)
(1.00433 -0.00504735 0)
(0.998763 -0.00380013 0)
(0.995572 -0.00287763 0)
(0.996312 -0.00162054 0)
(0.996052 0.0019629 0)
(0.995825 0.00284484 0)
(0.996964 0.00409217 0)
(0.99877 0.00443364 0)
(0.999756 0.0042923 0)
(0.999546 0.00407735 0)
(0.999064 0.00476531 0)
(0.999322 0.00544895 0)
(0.999323 0.00591485 0)
(0.99869 0.00739539 0)
(1.00109 -0.00137742 0)
(0.998651 -0.00135404 0)
(0.995928 -0.00128892 0)
(0.998746 0.00387956 0)
(1.00102 0.00100238 0)
(1.00259 0.00273191 0)
(1.00412 -0.00468635 0)
(0.998856 -0.00378134 0)
(0.995673 -0.00256228 0)
(0.996539 -0.00162597 0)
(0.996277 0.00186241 0)
(0.995946 0.00286895 0)
(0.997063 0.00387147 0)
(0.998795 0.00438812 0)
(0.999739 0.0043125 0)
(0.999589 0.00416059 0)
(0.999179 0.00483078 0)
(0.999425 0.00554633 0)
(0.999504 0.00600858 0)
(0.998995 0.00726695 0)
(1.00105 -0.00132671 0)
(0.998687 -0.0013433 0)
(0.9961 -0.00118581 0)
(0.998818 0.00365931 0)
(1.001 0.000960166 0)
(1.00239 0.00251608 0)
(1.0039 -0.0043276 0)
(0.998952 -0.0037602 0)
(0.995776 -0.00226123 0)
(0.996757 -0.00160247 0)
(0.996516 0.0017285 0)
(0.996067 0.00290863 0)
(0.997162 0.00368168 0)
(0.998838 0.00431592 0)
(0.999732 0.00435275 0)
(0.999635 0.00424299 0)
(0.999301 0.00488011 0)
(0.999538 0.00561614 0)
(0.999675 0.00609633 0)
(0.999281 0.00716606 0)
(1.00101 -0.00127538 0)
(0.998724 -0.0013305 0)
(0.996272 -0.00109281 0)
(0.998889 0.00344691 0)
(1.00097 0.000915814 0)
(1.0022 0.0023058 0)
(1.00368 -0.00396766 0)
(0.999051 -0.00373653 0)
(0.995883 -0.00198146 0)
(0.996964 -0.0015447 0)
(0.996768 0.00156714 0)
(0.99619 0.00295323 0)
(0.997259 0.0035334 0)
(0.998899 0.0042196 0)
(0.999738 0.00439492 0)
(0.999684 0.00432154 0)
(0.999427 0.00491693 0)
(0.999662 0.0056605 0)
(0.999839 0.00615993 0)
(0.999544 0.00709396 0)
(1.00097 -0.00122414 0)
(0.998764 -0.00131309 0)
(0.996443 -0.00101141 0)
(0.998959 0.00324055 0)
(1.00094 0.000872436 0)
(1.00201 0.00209536 0)
(1.00345 -0.00361086 0)
(0.999151 -0.00370139 0)
(0.995997 -0.0017291 0)
(0.997156 -0.00144623 0)
(0.997033 0.0013918 0)
(0.996322 0.00299192 0)
(0.99735 0.00343527 0)
(0.998976 0.00411091 0)
(0.99976 0.00443245 0)
(0.999736 0.00440148 0)
(0.999557 0.00493917 0)
(0.999795 0.00568743 0)
(1 0.00619661 0)
(0.999788 0.00703364 0)
(1.00093 -0.00117388 0)
(0.998804 -0.0012894 0)
(0.996614 -0.000939609 0)
(0.999029 0.00303684 0)
(1.00092 0.000833965 0)
(1.00183 0.00188139 0)
(1.00322 -0.00325689 0)
(0.999249 -0.00365331 0)
(0.996119 -0.00150752 0)
(0.997334 -0.0013144 0)
(0.997307 0.00121393 0)
(0.996466 0.00301352 0)
(0.997437 0.00338585 0)
(0.999067 0.00399594 0)
(0.999799 0.00445517 0)
(0.99979 0.0044857 0)
(0.999688 0.00494494 0)
(0.999936 0.00569437 0)
(1.00016 0.0062168 0)
(1.00002 0.00696471 0)
(1.00089 -0.00112352 0)
(0.998846 -0.00126195 0)
(0.996784 -0.000874693 0)
(0.999098 0.00283052 0)
(1.00088 0.000805369 0)
(1.00167 0.00166699 0)
(1.00299 -0.0029113 0)
(0.999345 -0.00358808 0)
(0.996249 -0.0013261 0)
(0.997496 -0.00115152 0)
(0.997587 0.00104436 0)
(0.996627 0.00301048 0)
(0.997517 0.00337669 0)
(0.999166 0.00388209 0)
(0.999859 0.00445471 0)
(0.999846 0.0045717 0)
(0.999817 0.00493963 0)
(1.00009 0.00567203 0)
(1.00032 0.00623025 0)
(1.00023 0.00688608 0)
(1.00085 -0.00107424 0)
(0.998887 -0.00122776 0)
(0.996952 -0.000816312 0)
(0.999166 0.00261828 0)
(1.00085 0.00079174 0)
(1.00151 0.00145832 0)
(1.00276 -0.00257957 0)
(0.999434 -0.00349394 0)
(0.996391 -0.00118591 0)
(0.997644 -0.000962909 0)
(0.997868 0.000898628 0)
(0.996808 0.00298593 0)
(0.997594 0.00339659 0)
(0.999269 0.0037794 0)
(0.99994 0.00442941 0)
(0.999904 0.00465785 0)
(0.99994 0.00493804 0)
(1.00025 0.00561608 0)
(1.00049 0.00623096 0)
(1.00044 0.00681184 0)
(1.0008 -0.00102484 0)
(0.998929 -0.00119263 0)
(0.997116 -0.000758705 0)
(0.999235 0.00239587 0)
(1.00081 0.000793516 0)
(1.00135 0.00125647 0)
(1.00253 -0.00227296 0)
(0.999516 -0.00336169 0)
(0.996542 -0.00107303 0)
(0.997781 -0.000762103 0)
(0.998146 0.000787228 0)
(0.997009 0.00294137 0)
(0.997668 0.00343188 0)
(0.999371 0.00369142 0)
(1.00004 0.00437544 0)
(0.99997 0.00473401 0)
(1.00005 0.00495079 0)
(1.00042 0.00553142 0)
(1.00066 0.00619821 0)
(1.00064 0.00675022 0)
(1.00076 -0.000975106 0)
(0.998972 -0.0011579 0)
(0.997275 -0.000698882 0)
(0.999305 0.00215862 0)
(1.00077 0.000805112 0)
(1.00121 0.00106644 0)
(1.00231 -0.00199776 0)
(0.99959 -0.0031932 0)
(0.996703 -0.000980833 0)
(0.997909 -0.000561412 0)
(0.998419 0.000711301 0)
(0.997229 0.00288082 0)
(0.997742 0.00347412 0)
(0.999469 0.00361623 0)
(1.00017 0.00429211 0)
(1.00005 0.00479129 0)
(1.00015 0.00498767 0)
(1.00059 0.00544072 0)
(1.00084 0.00612085 0)
(1.00082 0.00669207 0)
(1.00072 -0.000924797 0)
(0.999014 -0.00112571 0)
(0.997428 -0.000631536 0)
(0.999375 0.00190802 0)
(1.00073 0.000820134 0)
(1.00106 0.000899186 0)
(1.00209 -0.00175758 0)
(0.999655 -0.00299451 0)
(0.99687 -0.000902367 0)
(0.99803 -0.000372839 0)
(0.998683 0.000663378 0)
(0.997467 0.00280659 0)
(0.997818 0.0035156 0)
(0.999556 0.00355427 0)
(1.00031 0.00418262 0)
(1.00015 0.00481706 0)
(1.00024 0.00504361 0)
(1.00075 0.00536496 0)
(1.00104 0.00600394 0)
(1.00101 0.00661761 0)
(1.00068 -0.000872952 0)
(0.999057 -0.00109782 0)
(0.997574 -0.00055614 0)
(0.999445 0.00164761 0)
(1.00069 0.000831297 0)
(1.00092 0.000766203 0)
(1.00188 -0.00156168 0)
(0.999712 -0.00277137 0)
(0.997042 -0.000821582 0)
(0.998146 -0.00019468 0)
(0.998937 0.00063823 0)
(0.997721 0.0027205 0)
(0.997897 0.00355117 0)
(0.99963 0.00351126 0)
(1.00046 0.00405759 0)
(1.00027 0.00480313 0)
(1.00031 0.00510466 0)
(1.00088 0.00531589 0)
(1.00125 0.00586386 0)
(1.00121 0.00651128 0)
(1.00063 -0.000819557 0)
(0.999101 -0.00107453 0)
(0.997711 -0.000474223 0)
(0.999514 0.00138886 0)
(1.00065 0.000824224 0)
(1.00079 0.000677523 0)
(1.00168 -0.00139407 0)
(0.999762 -0.00253937 0)
(0.997216 -0.000722681 0)
(0.998255 -3.37818e-05 0)
(0.999179 0.000622792 0)
(0.997991 0.00262183 0)
(0.997982 0.00358155 0)
(0.999688 0.00349243 0)
(1.00063 0.00392653 0)
(1.00042 0.00474708 0)
(1.0004 0.0051539 0)
(1.001 0.005296 0)
(1.00145 0.0057217 0)
(1.00142 0.00637328 0)
(1.00059 -0.000764386 0)
(0.999147 -0.00105639 0)
(0.99784 -0.000383398 0)
(0.999581 0.00113848 0)
(1.00061 0.000788818 0)
(1.00065 0.000629766 0)
(1.00149 -0.00124018 0)
(0.999808 -0.00231365 0)
(0.99739 -0.000606905 0)
(0.998357 0.000119319 0)
(0.999407 0.000614973 0)
(0.998274 0.00250762 0)
(0.998079 0.0036035 0)
(0.999728 0.00350025 0)
(1.00079 0.00380011 0)
(1.00061 0.00465112 0)
(1.00049 0.00517535 0)
(1.00108 0.0052968 0)
(1.00164 0.00559008 0)
(1.00165 0.00620673 0)
(1.00055 -0.000707882 0)
(0.999194 -0.00104139 0)
(0.997959 -0.000289714 0)
(0.999642 0.000902418 0)
(1.00059 0.000715085 0)
(1.00052 0.000620675 0)
(1.00129 -0.00109631 0)
(0.999851 -0.00210116 0)
(0.997565 -0.000483255 0)
(0.998449 0.000281608 0)
(0.999617 0.000622681 0)
(0.998571 0.00237458 0)
(0.998192 0.00360829 0)
(0.999749 0.00353386 0)
(1.00094 0.00369047 0)
(1.00081 0.00451995 0)
(1.0006 0.00515965 0)
(1.00115 0.00530775 0)
(1.0018 0.00547975 0)
(1.00188 0.00601662 0)
(1.00051 -0.000648414 0)
(0.999244 -0.00103265 0)
(0.99807 -0.000197467 0)
(0.999696 0.000693185 0)
(1.00057 0.000599535 0)
(1.0004 0.000640588 0)
(1.0011 -0.000943646 0)
(0.999892 -0.00190964 0)
(0.997744 -0.000362285 0)
(0.998531 0.000454841 0)
(0.999803 0.000653804 0)
(0.998877 0.00222273 0)
(0.998328 0.00358291 0)
(0.999756 0.00358921 0)
(1.00106 0.00361182 0)
(1.00103 0.00436415 0)
(1.00074 0.0051008 0)
(1.00121 0.00531547 0)
(1.00192 0.00539829 0)
(1.00211 0.00581276 0)
(1.00046 -0.000587595 0)
(0.999296 -0.0010281 0)
(0.998174 -0.000111211 0)
(0.999739 0.000520359 0)
(1.00057 0.000452092 0)
(1.00029 0.000669286 0)
(1.00091 -0.000769013 0)
(0.999928 -0.00173245 0)
(0.997928 -0.000249314 0)
(0.998608 0.00063597 0)
(0.999959 0.000713811 0)
(0.999185 0.00206596 0)
(0.998493 0.00352034 0)
(0.999756 0.00365206 0)
(1.00116 0.00357224 0)
(1.00126 0.00420348 0)
(1.00091 0.00499823 0)
(1.00127 0.00530354 0)
(1.00201 0.00534544 0)
(1.00232 0.00561592 0)
(1.00042 -0.000525234 0)
(0.999351 -0.00102701 0)
(0.998271 -3.05552e-05 0)
(0.999769 0.000389625 0)
(1.00058 0.000279412 0)
(1.00019 0.000687717 0)
(1.00072 -0.000567301 0)
(0.999957 -0.00156135 0)
(0.99812 -0.000155916 0)
(0.998681 0.000811177 0)
(1.00008 0.000804368 0)
(0.999487 0.00191786 0)
(0.998688 0.00341766 0)
(0.999759 0.00370143 0)
(1.00122 0.00356843 0)
(1.00148 0.00405833 0)
(1.00111 0.00485953 0)
(1.00134 0.00525761 0)
(1.00206 0.00531027 0)
(1.00249 0.0054563 0)
(1.00038 -0.000461523 0)
(0.999408 -0.0010302 0)
(0.998365 3.99673e-05 0)
(0.999784 0.000305297 0)
(1.00059 9.46891e-05 0)
(1.00013 0.00067289 0)
(1.00053 -0.000340994 0)
(0.999974 -0.00137974 0)
(0.998318 -9.19322e-05 0)
(0.998757 0.000968052 0)
(1.00018 0.000932347 0)
(0.999773 0.00179598 0)
(0.998913 0.0032748 0)
(0.999777 0.00372096 0)
(1.00126 0.00358772 0)
(1.00168 0.00394295 0)
(1.00133 0.00470457 0)
(1.00144 0.00517606 0)
(1.0021 0.00526942 0)
(1.00261 0.00534414 0)
(1.00034 -0.000397822 0)
(0.999467 -0.00103577 0)
(0.99846 9.39861e-05 0)
(0.999785 0.000264876 0)
(1.00061 -9.63996e-05 0)
(1.00008 0.00061895 0)
(1.00035 -0.000107134 0)
(0.999973 -0.00117235 0)
(0.998521 -5.17335e-05 0)
(0.998844 0.00109388 0)
(1.00024 0.0010863 0)
(1.00003 0.00171466 0)
(0.999159 0.00310643 0)
(0.999818 0.00370305 0)
(1.00127 0.00361043 0)
(1.00185 0.00385199 0)
(1.00155 0.00454479 0)
(1.00155 0.00506646 0)
(1.00213 0.00520227 0)
(1.00269 0.00526122 0)
(1.0003 -0.000335534 0)
(0.999529 -0.0010384 0)
(0.998558 0.000127101 0)
(0.999769 0.000265002 0)
(1.00063 -0.00027205 0)
(1.00008 0.000520313 0)
(1.00018 0.000123158 0)
(0.999953 -0.000936714 0)
(0.998722 -2.72802e-05 0)
(0.998948 0.00117834 0)
(1.00029 0.0012477 0)
(1.00026 0.0016761 0)
(0.99942 0.00293347 0)
(0.999888 0.00364512 0)
(1.00128 0.00362431 0)
(1.00199 0.00377694 0)
(1.00178 0.0043819 0)
(1.00169 0.00493929 0)
(1.00217 0.00511033 0)
(1.00273 0.00518187 0)
(1.00027 -0.000275903 0)
(0.999593 -0.00103401 0)
(0.998662 0.000135979 0)
(0.999741 0.000295119 0)
(1.00065 -0.000401982 0)
(1.00011 0.000376457 0)
(1.00005 0.000328104 0)
(0.999912 -0.000667539 0)
(0.998914 -1.08902e-07 0)
(0.999073 0.00121736 0)
(1.00032 0.00140035 0)
(1.00044 0.00168718 0)
(0.999682 0.00277561 0)
(0.999987 0.00355189 0)
(1.00128 0.00361897 0)
(1.00211 0.00371405 0)
(1.002 0.00421695 0)
(1.00185 0.0047935 0)
(1.00222 0.00500338 0)
(1.00276 0.00508562 0)
(1.00023 -0.000222165 0)
(0.999656 -0.00101642 0)
(0.998774 0.000117533 0)
(0.999705 0.000345038 0)
(1.00064 -0.000481377 0)
(1.00016 0.000209436 0)
(0.999945 0.000493251 0)
(0.999855 -0.000367951 0)
(0.999087 5.0422e-05 0)
(0.999219 0.00121309 0)
(1.00036 0.00152451 0)
(1.0006 0.00173713 0)
(0.999934 0.00264809 0)
(1.00011 0.00344001 0)
(1.0013 0.00359086 0)
(1.00219 0.00366259 0)
(1.0022 0.00406197 0)
(1.00202 0.00462584 0)
(1.00229 0.00488542 0)
(1.00278 0.00496844 0)
(1.0002 -0.000175565 0)
(0.999717 -0.000981822 0)
(0.998895 7.09398e-05 0)
(0.999668 0.000406737 0)
(1.00063 -0.0004953 0)
(1.00025 2.40926e-05 0)
(0.999889 0.000592197 0)
(0.999786 -6.3771e-05 0)
(0.999232 0.000145155 0)
(0.999378 0.00118552 0)
(1.00041 0.00160986 0)
(1.00073 0.0018 0)
(1.00017 0.00255671 0)
(1.00025 0.00332616 0)
(1.00132 0.00354354 0)
(1.00226 0.00361384 0)
(1.00239 0.0039265 0)
(1.00221 0.00444308 0)
(1.00237 0.00475056 0)
(1.00281 0.00483591 0)
(1.00018 -0.000137017 0)
(0.999773 -0.000929058 0)
(0.999024 7.47778e-06 0)
(0.999637 0.000461199 0)
(1.00059 -0.000440727 0)
(1.00035 -0.000156242 0)
(0.999885 0.000596988 0)
(0.999724 0.000235539 0)
(0.999346 0.000294656 0)
(0.999541 0.0011638 0)
(1.00047 0.00165055 0)
(1.00084 0.00186011 0)
(1.00039 0.00249335 0)
(1.00041 0.00321809 0)
(1.00135 0.00348461 0)
(1.00231 0.00355947 0)
(1.00255 0.00380599 0)
(1.0024 0.0042592 0)
(1.00247 0.00459543 0)
(1.00285 0.00469284 0)
(1.00015 -0.000108469 0)
(0.999824 -0.000856325 0)
(0.999158 -6.72033e-05 0)
(0.999619 0.000498197 0)
(1.00053 -0.000343812 0)
(1.00044 -0.000290025 0)
(0.999936 0.000529657 0)
(0.999685 0.000501658 0)
(0.999428 0.000490372 0)
(0.999692 0.00115947 0)
(1.00055 0.00165677 0)
(1.00095 0.0019049 0)
(1.00059 0.00244959 0)
(1.00057 0.0031174 0)
(1.0014 0.00341898 0)
(1.00235 0.00350512 0)
(1.00269 0.0036976 0)
(1.00258 0.00408446 0)
(1.00258 0.00442899 0)
(1.00289 0.004544 0)
(1.00013 -8.76718e-05 0)
(0.999866 -0.000770978 0)
(0.999295 -0.000145443 0)
(0.999616 0.000509659 0)
(1.00046 -0.000218913 0)
(1.00052 -0.000363397 0)
(1.00003 0.000421533 0)
(0.999684 0.000689977 0)
(0.999485 0.000712222 0)
(0.999823 0.00118956 0)
(1.00065 0.00164603 0)
(1.00106 0.00192149 0)
(1.00078 0.00241118 0)
(1.00073 0.00302318 0)
(1.00146 0.00334091 0)
(1.00239 0.0034454 0)
(1.0028 0.0036006 0)
(1.00276 0.00391826 0)
(1.0027 0.00425658 0)
(1.00293 0.0043933 0)
(1.00012 -7.50971e-05 0)
(0.9999 -0.000675735 0)
(0.99943 -0.000216467 0)
(0.999633 0.000492069 0)
(1.00038 -8.06857e-05 0)
(1.00058 -0.000364421 0)
(1.00016 0.000296727 0)
(0.999731 0.000789346 0)
(0.999534 0.00092421 0)
(0.999925 0.00126992 0)
(1.00074 0.0016393 0)
(1.00117 0.00191591 0)
(1.00096 0.00236564 0)
(1.00089 0.00293461 0)
(1.00153 0.0032588 0)
(1.00243 0.00337318 0)
(1.0029 0.00351241 0)
(1.00292 0.00376623 0)
(1.00284 0.0040786 0)
(1.00298 0.00424287 0)
(1.0001 -6.93663e-05 0)
(0.999925 -0.000572592 0)
(0.999559 -0.000273717 0)
(0.99967 0.0004521 0)
(1.00031 5.35572e-05 0)
(1.00062 -0.000299281 0)
(1.0003 0.00018672 0)
(0.999826 0.000806846 0)
(0.999594 0.00110003 0)
(1 0.00137506 0)
(1.00082 0.00165383 0)
(1.00127 0.00190394 0)
(1.00114 0.00231178 0)
(1.00106 0.00284109 0)
(1.00161 0.0031769 0)
(1.00247 0.00329274 0)
(1.00298 0.00342026 0)
(1.00307 0.00363266 0)
(1.00298 0.00389938 0)
(1.00304 0.00408646 0)
(1.00009 -6.83167e-05 0)
(0.999942 -0.000469873 0)
(0.999678 -0.000306503 0)
(0.999727 0.000391673 0)
(1.00024 0.000178434 0)
(1.00063 -0.000193652 0)
(1.00044 0.000122036 0)
(0.999963 0.000768609 0)
(0.999677 0.00122234 0)
(1.00007 0.00148433 0)
(1.00088 0.00168842 0)
(1.00137 0.00189569 0)
(1.0013 0.00225802 0)
(1.00124 0.00273749 0)
(1.0017 0.00308254 0)
(1.00251 0.00320933 0)
(1.00306 0.00331681 0)
(1.00319 0.00350708 0)
(1.00311 0.00373043 0)
(1.00311 0.00391581 0)
(1.00008 -6.96653e-05 0)
(0.999951 -0.000371699 0)
(0.999781 -0.00031158 0)
(0.9998 0.000319619 0)
(1.0002 0.000280563 0)
(1.00062 -6.75668e-05 0)
(1.00056 0.000106098 0)
(1.00013 0.000708521 0)
(0.999791 0.00126598 0)
(1.00013 0.00158299 0)
(1.00092 0.00173495 0)
(1.00146 0.00189595 0)
(1.00146 0.00221303 0)
(1.0014 0.0026386 0)
(1.0018 0.00297295 0)
(1.00256 0.00311889 0)
(1.00312 0.00320998 0)
(1.0033 0.00337533 0)
(1.00324 0.00357734 0)
(1.00319 0.00373852 0)
(1.00008 -7.09041e-05 0)
(0.999954 -0.000283958 0)
(0.999867 -0.000288492 0)
(0.999883 0.000249917 0)
(1.00017 0.000349423 0)
(1.0006 7.63571e-05 0)
(1.00065 0.000140809 0)
(1.0003 0.000654953 0)
(0.999935 0.00125328 0)
(1.0002 0.00164102 0)
(1.00095 0.00178745 0)
(1.00153 0.0019014 0)
(1.0016 0.00217224 0)
(1.00156 0.00254962 0)
(1.00191 0.00285976 0)
(1.0026 0.00301168 0)
(1.00318 0.00310099 0)
(1.00341 0.00323398 0)
(1.00335 0.00342563 0)
(1.00328 0.00356759 0)
(1.00007 -6.97284e-05 0)
(0.999956 -0.000210446 0)
(0.999935 -0.000242242 0)
(0.999968 0.000193643 0)
(1.00017 0.000387668 0)
(1.00057 0.000220111 0)
(1.00073 0.000219909 0)
(1.00046 0.000620193 0)
(1.0001 0.00122052 0)
(1.00028 0.00165035 0)
(1.00098 0.00182776 0)
(1.00158 0.00191254 0)
(1.00172 0.00213586 0)
(1.00171 0.00246683 0)
(1.00201 0.00275471 0)
(1.00265 0.00289734 0)
(1.00322 0.00298469 0)
(1.0035 0.00309194 0)
(1.00346 0.00326283 0)
(1.00336 0.00340313 0)
(1.00007 -6.62539e-05 0)
(0.999958 -0.000149104 0)
(0.999989 -0.000183881 0)
(1.00005 0.000158284 0)
(1.00018 0.000406786 0)
(1.00055 0.000340141 0)
(1.00077 0.0003191 0)
(1.00062 0.000618843 0)
(1.00028 0.001175 0)
(1.00039 0.00163141 0)
(1.00101 0.00183784 0)
(1.00162 0.00192128 0)
(1.00182 0.00210416 0)
(1.00184 0.00238906 0)
(1.00211 0.00265326 0)
(1.0027 0.00278634 0)
(1.00326 0.0028602 0)
(1.00357 0.00295034 0)
(1.00357 0.00309175 0)
(1.00344 0.0032321 0)