/*--------------------------------*- C++ -*----------------------------------*\
| =========                 |                                                 |
| \\      /  F ield         | OpenFOAM: The Open Source CFD Toolbox           |
|  \\    /   O peration     | Version:  2106                                  |
|   \\  /    A nd           | Website:  www.openfoam.com                      |
|    \\/     M anipulation  |                                                 |
\*---------------------------------------------------------------------------*/
FoamFile
{
    version     2.0;
    format      ascii;
    arch        "LSB;label=32;scalar=64";
    class       volVectorField;
    location    "0.69";
    object      U;
}
// * * * * * * * * * * * * * * * * * * * * * * * * * * * * * * * * * * * * * //

dimensions      [0 1 -1 0 0 0 0];

internalField   nonuniform List<vector> 
9600
(
(0.864968 -0.00810602 0)
(1.12382 0.0078876 0)
(0.854033 -0.00387563 0)
(1.15904 -0.00181039 0)
(0.910235 0.00139947 0)
(1.18737 0.00643791 0)
(0.87582 0.00410369 0)
(1.15795 0.0045256 0)
(0.878982 -0.00815997 0)
(1.13671 -0.0044917 0)
(0.895089 -0.00982135 0)
(1.14935 0.0011434 0)
(0.903463 -0.0044859 0)
(1.16445 0.000390496 0)
(0.911278 -0.00235127 0)
(1.16859 0.00206153 0)
(0.901143 0.00322322 0)
(1.16052 0.00430357 0)
(0.886936 0.00608484 0)
(1.15062 0.00396105 0)
(0.875566 -0.00810782 0)
(1.1183 0.00808756 0)
(0.872441 -0.00428065 0)
(1.14986 -0.00214378 0)
(0.92525 0.000893593 0)
(1.1748 0.00689535 0)
(0.90178 0.00422015 0)
(1.13747 0.00470873 0)
(0.912899 -0.00805044 0)
(1.11301 -0.0045046 0)
(0.927975 -0.0102138 0)
(1.12238 0.00114846 0)
(0.945802 -0.00491935 0)
(1.12805 0.000350328 0)
(0.964831 -0.00255178 0)
(1.11704 0.00223719 0)
(0.974547 0.00364079 0)
(1.08278 0.0041625 0)
(0.991392 0.00748661 0)
(1.03391 0.00303783 0)
(0.892828 -0.00812172 0)
(1.10604 0.00820505 0)
(0.901047 -0.00466867 0)
(1.12913 -0.00243118 0)
(0.952582 0.000501328 0)
(1.15024 0.00733727 0)
(0.944045 0.00448426 0)
(1.10652 0.00477754 0)
(0.954093 -0.00785972 0)
(1.07687 -0.00462591 0)
(0.96709 -0.0104051 0)
(1.08226 0.000881688 0)
(0.992219 -0.00504626 0)
(1.08262 -8.94577e-06 0)
(1.01367 -0.00226817 0)
(1.06946 0.00205033 0)
(1.0223 0.00441876 0)
(1.04283 0.00396947 0)
(1.02441 0.0083482 0)
(1.02033 0.00398448 0)
(0.914099 -0.00815356 0)
(1.08806 0.00816633 0)
(0.931847 -0.00490756 0)
(1.09902 -0.0027477 0)
(0.982393 0.000230323 0)
(1.11946 0.00750869 0)
(0.98578 0.0048586 0)
(1.076 0.00479728 0)
(0.98565 -0.00750996 0)
(1.04319 -0.00476374 0)
(0.992617 -0.0104541 0)
(1.04848 0.000408699 0)
(1.01752 -0.005031 0)
(1.0516 -0.000436129 0)
(1.0328 -0.00198303 0)
(1.04622 0.00185886 0)
(1.03453 0.00495905 0)
(1.03336 0.00401081 0)
(1.02731 0.00889898 0)
(1.02283 0.0050278 0)
(0.93634 -0.0081915 0)
(1.06723 0.00803424 0)
(0.958506 -0.00499162 0)
(1.0663 -0.00311602 0)
(1.00502 -3.53725e-05 0)
(1.08903 0.00748657 0)
(1.01478 0.00526779 0)
(1.05252 0.00490718 0)
(1.00215 -0.00706187 0)
(1.0205 -0.00485575 0)
(1.00193 -0.0104927 0)
(1.0277 -0.000101802 0)
(1.02362 -0.00504519 0)
(1.03503 -0.000799321 0)
(1.03341 -0.00183661 0)
(1.03563 0.00174289 0)
(1.03339 0.00527695 0)
(1.02988 0.00416201 0)
(1.02612 0.00933996 0)
(1.0221 0.0058527 0)
(0.956585 -0.00822111 0)
(1.04692 0.00785572 0)
(0.977765 -0.00495548 0)
(1.0381 -0.00349159 0)
(1.01609 -0.000315901 0)
(1.06305 0.00738197 0)
(1.0278 0.00563302 0)
(1.03673 0.00513191 0)
(1.0075 -0.00659704 0)
(1.0085 -0.00488438 0)
(1.00229 -0.010531 0)
(1.01622 -0.000590991 0)
(1.0206 -0.00509012 0)
(1.02508 -0.00111842 0)
(1.02755 -0.00173747 0)
(1.02798 0.00160572 0)
(1.02871 0.00547194 0)
(1.02592 0.0043311 0)
(1.02355 0.00961829 0)
(1.01992 0.00666797 0)
(0.97283 -0.00823446 0)
(1.0296 0.00766494 0)
(0.989598 -0.00484617 0)
(1.01835 -0.00381275 0)
(1.01692 -0.000590421 0)
(1.04244 0.00724582 0)
(1.02836 0.00591114 0)
(1.02611 0.00540196 0)
(1.0077 -0.00616158 0)
(1.00326 -0.00487018 0)
(1.00028 -0.0105376 0)
(1.0094 -0.00104977 0)
(1.01499 -0.00512362 0)
(1.01733 -0.00140732 0)
(1.02016 -0.00165433 0)
(1.02052 0.00141695 0)
(1.02245 0.00557556 0)
(1.02073 0.00447746 0)
(1.01921 0.00975775 0)
(1.0164 0.0075001 0)
(0.98443 -0.00822753 0)
(1.01634 0.00748998 0)
(0.995917 -0.00470985 0)
(1.00696 -0.00404176 0)
(1.01185 -0.000829711 0)
(1.02647 0.0071003 0)
(1.02225 0.00609527 0)
(1.01841 0.0056321 0)
(1.0066 -0.00578254 0)
(1.00143 -0.00484337 0)
(0.998759 -0.0104898 0)
(1.00483 -0.00146223 0)
(1.00952 -0.00511319 0)
(1.01071 -0.00167293 0)
(1.01292 -0.00157117 0)
(1.0132 0.00121028 0)
(1.01537 0.00560461 0)
(1.0145 0.00461611 0)
(1.01349 0.00980098 0)
(1.01152 0.00830976 0)
(0.991866 -0.00819722 0)
(1.00704 0.00734001 0)
(0.998952 -0.00458237 0)
(1.00154 -0.00417435 0)
(1.00516 -0.00100363 0)
(1.01435 0.00695677 0)
(1.01434 0.00619459 0)
(1.01264 0.00576699 0)
(1.00566 -0.00547373 0)
(1.00109 -0.00482233 0)
(0.998173 -0.0103787 0)
(1.00166 -0.00181385 0)
(1.00511 -0.00505006 0)
(1.00532 -0.00190627 0)
(1.0066 -0.0014648 0)
(1.00657 0.00102519 0)
(1.00834 0.00558324 0)
(1.00798 0.00478085 0)
(1.00728 0.00976615 0)
(1.00606 0.00905609 0)
(0.996177 -0.00814263 0)
(1.00102 0.00720696 0)
(1.00033 -0.00448031 0)
(0.999391 -0.0042253 0)
(0.999461 -0.00109698 0)
(1.00564 0.0068176 0)
(1.00754 0.00622317 0)
(1.00858 0.00579172 0)
(1.00514 -0.00523062 0)
(1.00126 -0.0048129 0)
(0.998168 -0.0102069 0)
(0.999491 -0.00210348 0)
(1.00189 -0.00493728 0)
(1.00125 -0.00209386 0)
(1.0016 -0.00133056 0)
(1.0011 0.00088867 0)
(1.00218 0.00553407 0)
(1.0021 0.0049862 0)
(1.0016 0.00966408 0)
(1.00104 0.00970564 0)
(0.998457 -0.00806601 0)
(0.997452 0.0070787 0)
(1.00092 -0.00440209 0)
(0.998615 -0.00421712 0)
(0.995601 -0.00111639 0)
(0.99995 0.00667989 0)
(1.00291 0.0061972 0)
(1.00606 0.00572165 0)
(1.00494 -0.00503479 0)
(1.0015 -0.0048138 0)
(0.998347 -0.00998275 0)
(0.998067 -0.00234254 0)
(0.999682 -0.00478048 0)
(0.998405 -0.00223548 0)
(0.997947 -0.00116539 0)
(0.997036 0.000817575 0)
(0.997412 0.00546737 0)
(0.997493 0.00522471 0)
(0.997192 0.0095148 0)
(0.997152 0.0102368 0)
(0.99957 -0.00797159 0)
(0.995565 0.00694669 0)
(1.00113 -0.00433687 0)
(0.998236 -0.0041725 0)
(0.993377 -0.00108166 0)
(0.996689 0.0065383 0)
(1.00037 0.00613288 0)
(1.0048 0.00558456 0)
(1.00495 -0.00486403 0)
(1.00167 -0.00481966 0)
(0.998489 -0.00971855 0)
(0.997136 -0.00254268 0)
(0.998197 -0.00459231 0)
(0.996523 -0.00233384 0)
(0.995487 -0.000978803 0)
(0.994309 0.000813898 0)
(0.994151 0.00538383 0)
(0.994356 0.00548098 0)
(0.994279 0.0093448 0)
(0.994623 0.0106396 0)
(1.00008 -0.0078639 0)
(0.994719 0.0068066 0)
(1.00113 -0.00427244 0)
(0.997897 -0.00410921 0)
(0.992238 -0.00101412 0)
(0.995124 0.00638625 0)
(0.999322 0.00604415 0)
(1.00437 0.00540603 0)
(1.00506 -0.00469963 0)
(1.00175 -0.00482413 0)
(0.998534 -0.00942508 0)
(0.996513 -0.00271297 0)
(0.997187 -0.00438708 0)
(0.995327 -0.00239462 0)
(0.993956 -0.000797497 0)
(0.992685 0.00086562 0)
(0.992224 0.00528386 0)
(0.992537 0.00573532 0)
(0.992705 0.00917948 0)
(0.993315 0.0109136 0)
(1.00032 -0.00774659 0)
(0.994445 0.00665692 0)
(1.00101 -0.00419933 0)
(0.997548 -0.00403905 0)
(0.991699 -0.000930105 0)
(0.994573 0.00621794 0)
(0.999137 0.00594109 0)
(1.00439 0.0052036 0)
(1.00521 -0.00453007 0)
(1.00178 -0.00482179 0)
(0.998512 -0.0091093 0)
(0.996088 -0.00286052 0)
(0.996484 -0.00417733 0)
(0.994586 -0.00242446 0)
(0.993078 -0.000631508 0)
(0.991857 0.000958221 0)
(0.991291 0.0051735 0)
(0.991706 0.00596576 0)
(0.992113 0.00903747 0)
(0.992898 0.0110695 0)
(1.00043 -0.0076219 0)
(0.994441 0.00649733 0)
(1.00085 -0.0041121 0)
(0.997234 -0.0039688 0)
(0.991462 -0.000839083 0)
(0.994529 0.00602991 0)
(0.999328 0.00582992 0)
(1.00457 0.00498836 0)
(1.00533 -0.00435104 0)
(1.00178 -0.00480881 0)
(0.99847 -0.00877851 0)
(0.995808 -0.00298514 0)
(0.995988 -0.00397364 0)
(0.994136 -0.00242521 0)
(0.992621 -0.000483332 0)
(0.991535 0.00107473 0)
(0.990993 0.00506294 0)
(0.991501 0.0061555 0)
(0.99212 0.00892487 0)
(0.993016 0.0111277 0)
(1.00049 -0.00749078 0)
(0.994538 0.00632742 0)
(1.00067 -0.00400852 0)
(0.997 -0.00390224 0)
(0.99138 -0.000744718 0)
(0.994685 0.00582115 0)
(0.999612 0.00571458 0)
(1.00475 0.00476509 0)
(1.0054 -0.004161 0)
(1.00175 -0.0047842 0)
(0.99844 -0.00843963 0)
(0.995646 -0.00308712 0)
(0.995646 -0.00377928 0)
(0.993877 -0.00240289 0)
(0.992415 -0.00035144 0)
(0.991497 0.00119986 0)
(0.991039 0.00496183 0)
(0.991626 0.00630256 0)
(0.992422 0.00883577 0)
(0.993386 0.0111115 0)
(1.00053 -0.00735331 0)
(0.994657 0.0061466 0)
(1.00051 -0.00388846 0)
(0.996861 -0.00384129 0)
(0.991392 -0.000647277 0)
(0.994889 0.00559292 0)
(0.999855 0.00559756 0)
(1.00484 0.00453541 0)
(1.0054 -0.00396197 0)
(1.00171 -0.00474721 0)
(0.998437 -0.00809798 0)
(0.995584 -0.00316553 0)
(0.995426 -0.00359917 0)
(0.993748 -0.00236057 0)
(0.992356 -0.000246213 0)
(0.9916 0.00131995 0)
(0.991241 0.00487599 0)
(0.991884 0.00641624 0)
(0.992822 0.00875879 0)
(0.993826 0.0110409 0)
(1.00056 -0.00720918 0)
(0.994766 0.00595417 0)
(1.00036 -0.00375265 0)
(0.996809 -0.00378732 0)
(0.99147 -0.000544962 0)
(0.99508 0.0053476 0)
(1.00002 0.00547984 0)
(1.00482 0.00430203 0)
(1.00533 -0.00375991 0)
(1.00165 -0.00469382 0)
(0.998461 -0.00776099 0)
(0.995599 -0.00321798 0)
(0.995303 -0.00343279 0)
(0.993714 -0.0023021 0)
(0.992387 -0.000157917 0)
(0.99177 0.00142508 0)
(0.991498 0.00480607 0)
(0.992171 0.00650445 0)
(0.993219 0.00868148 0)
(0.994248 0.010929 0)
(1.00057 -0.00705797 0)
(0.994862 0.00574952 0)
(1.00023 -0.00360187 0)
(0.996821 -0.00374122 0)
(0.991597 -0.000437274 0)
(0.995248 0.00508843 0)
(1.00011 0.00536097 0)
(1.00472 0.00406848 0)
(1.0052 -0.00355908 0)
(1.00158 -0.00462245 0)
(0.998503 -0.00743581 0)
(0.99567 -0.00324498 0)
(0.995252 -0.00327479 0)
(0.993749 -0.00223539 0)
(0.992477 -6.78971e-05 0)
(0.991972 0.00151376 0)
(0.991772 0.00474563 0)
(0.992448 0.00657337 0)
(0.993579 0.00859486 0)
(0.994623 0.0107806 0)
(1.00059 -0.00689933 0)
(0.994947 0.00553238 0)
(1.00011 -0.00343732 0)
(0.996877 -0.0037024 0)
(0.991759 -0.000323185 0)
(0.995399 0.0048189 0)
(1.00015 0.0052415 0)
(1.00456 0.00383461 0)
(1.00503 -0.00336435 0)
(1.00149 -0.00453263 0)
(0.998557 -0.00712408 0)
(0.995779 -0.00325185 0)
(0.995252 -0.00312437 0)
(0.993836 -0.00216342 0)
(0.992609 2.89675e-05 0)
(0.992196 0.0015937 0)
(0.992054 0.00468613 0)
(0.99271 0.00663095 0)
(0.993901 0.00850017 0)
(0.994956 0.0105967 0)
(1.0006 -0.00673289 0)
(0.995025 0.00530221 0)
(0.99999 -0.00325904 0)
(0.99696 -0.00367192 0)
(0.991944 -0.00020205 0)
(0.995541 0.00454146 0)
(1.00016 0.00511848 0)
(1.00436 0.00360343 0)
(1.00483 -0.00318089 0)
(1.00139 -0.00442264 0)
(0.998616 -0.00682542 0)
(0.995912 -0.00324308 0)
(0.995285 -0.00297722 0)
(0.993959 -0.00208348 0)
(0.992774 0.000141776 0)
(0.992433 0.0016767 0)
(0.992346 0.00462061 0)
(0.992965 0.0066835 0)
(0.994193 0.00840872 0)
(0.995262 0.0103829 0)
(1.0006 -0.00655858 0)
(0.995101 0.00505942 0)
(0.999875 -0.00306843 0)
(0.997059 -0.00364908 0)
(0.992143 -7.49519e-05 0)
(0.995679 0.00425781 0)
(1.00016 0.00498974 0)
(1.00415 0.0033811 0)
(1.00461 -0.003013 0)
(1.00128 -0.00429144 0)
(0.998676 -0.00654223 0)
(0.996058 -0.0032164 0)
(0.995338 -0.00282517 0)
(0.994105 -0.00200752 0)
(0.992962 0.000258566 0)
(0.99268 0.0017701 0)
(0.99265 0.00454067 0)
(0.993222 0.00672668 0)
(0.994464 0.00833291 0)
(0.995552 0.010151 0)
(1.00061 -0.00637631 0)
(0.995179 0.00480441 0)
(0.999761 -0.0028664 0)
(0.997167 -0.0036337 0)
(0.992351 5.63149e-05 0)
(0.995817 0.00397274 0)
(1.00015 0.00485381 0)
(1.00392 0.00317002 0)
(1.00439 -0.00286354 0)
(1.00117 -0.00414049 0)
(0.998733 -0.00626963 0)
(0.996213 -0.00318262 0)
(0.995402 -0.00266461 0)
(0.994267 -0.00194132 0)
(0.993169 0.000369514 0)
(0.992932 0.00188067 0)
(0.992968 0.00444861 0)
(0.99349 0.00674452 0)
(0.994721 0.0082774 0)
(0.995832 0.00991203 0)
(1.00062 -0.00618611 0)
(0.99526 0.00453728 0)
(0.999647 -0.00265317 0)
(0.997282 -0.00362513 0)
(0.992565 0.000189048 0)
(0.995955 0.00369042 0)
(1.00014 0.00470666 0)
(1.00369 0.00297404 0)
(1.00417 -0.00273303 0)
(1.00106 -0.00397432 0)
(0.998788 -0.00599887 0)
(0.996375 -0.00315314 0)
(0.995474 -0.0024908 0)
(0.994437 -0.00187606 0)
(0.993393 0.000472001 0)
(0.993185 0.00201138 0)
(0.993294 0.00435988 0)
(0.993773 0.00672192 0)
(0.99497 0.00823829 0)
(0.996101 0.0096759 0)
(1.00063 -0.00598807 0)
(0.995346 0.00425874 0)
(0.999532 -0.00243085 0)
(0.997403 -0.00362057 0)
(0.992781 0.000321538 0)
(0.996093 0.00341299 0)
(1.00013 0.00454539 0)
(1.00346 0.00279557 0)
(1.00395 -0.00262116 0)
(1.00094 -0.00379676 0)
(0.998837 -0.0057283 0)
(0.996541 -0.00312679 0)
(0.995551 -0.00230215 0)
(0.994612 -0.0018043 0)
(0.993633 0.000560517 0)
(0.993439 0.0021582 0)
(0.993624 0.00428698 0)
(0.994073 0.006653 0)
(0.995214 0.00820431 0)
(0.996357 0.00945633 0)
(1.00063 -0.00578227 0)
(0.995437 0.0039698 0)
(0.999417 -0.00220086 0)
(0.997528 -0.0036193 0)
(0.993002 0.000451099 0)
(0.996229 0.00314334 0)
(1.00012 0.00436571 0)
(1.00323 0.00263813 0)
(1.00373 -0.00252603 0)
(1.00083 -0.00361237 0)
(0.998881 -0.00545355 0)
(0.996713 -0.00310481 0)
(0.995633 -0.00210215 0)
(0.994788 -0.00171619 0)
(0.993889 0.000631721 0)
(0.993694 0.00231692 0)
(0.993952 0.00423468 0)
(0.994389 0.00653829 0)
(0.995458 0.00815666 0)
(0.996597 0.00926628 0)
(1.00063 -0.00556948 0)
(0.995536 0.00367225 0)
(0.999302 -0.0019654 0)
(0.997656 -0.00361888 0)
(0.993225 0.000574696 0)
(0.996364 0.00288635 0)
(1.00011 0.00416643 0)
(1.003 0.00250215 0)
(1.00352 -0.00244757 0)
(1.00072 -0.0034255 0)
(0.998919 -0.00516807 0)
(0.996891 -0.00309075 0)
(0.995724 -0.00189886 0)
(0.994964 -0.00160255 0)
(0.994161 0.00068123 0)
(0.993953 0.00248484 0)
(0.994272 0.00421044 0)
(0.994719 0.00638474 0)
(0.995709 0.00807308 0)
(0.99682 0.00910758 0)
(1.00064 -0.00534958 0)
(0.995641 0.00336649 0)
(0.999186 -0.00172669 0)
(0.997787 -0.00361683 0)
(0.993452 0.000690003 0)
(0.996496 0.00264824 0)
(1.00011 0.00394495 0)
(1.00276 0.00238723 0)
(1.0033 -0.00238116 0)
(1.00062 -0.00324407 0)
(0.998949 -0.00486973 0)
(0.997072 -0.00308297 0)
(0.995824 -0.00170116 0)
(0.995137 -0.00145547 0)
(0.994449 0.000702969 0)
(0.994219 0.00264666 0)
(0.99458 0.00422114 0)
(0.995057 0.00620945 0)
(0.995973 0.00793744 0)
(0.997028 0.0089705 0)
(1.00064 -0.00512328 0)
(0.995754 0.00305477 0)
(0.999072 -0.00148794 0)
(0.997919 -0.00361112 0)
(0.993683 0.000795476 0)
(0.996624 0.00242902 0)
(1.00012 0.00370169 0)
(1.00253 0.00229205 0)
(1.00309 -0.00232128 0)
(1.00052 -0.00307306 0)
(0.99897 -0.00455984 0)
(0.997256 -0.00307153 0)
(0.995939 -0.00151579 0)
(0.995305 -0.0012717 0)
(0.994749 0.000703819 0)
(0.994499 0.00277889 0)
(0.994874 0.00426381 0)
(0.995393 0.00603537 0)
(0.996254 0.00774561 0)
(0.997229 0.00883254 0)
(1.00064 -0.00489113 0)
(0.995875 0.00273894 0)
(0.99896 -0.00125124 0)
(0.998051 -0.00360056 0)
(0.993916 0.000885982 0)
(0.996748 0.00223166 0)
(1.00013 0.00343754 0)
(1.00229 0.00221463 0)
(1.00287 -0.00226674 0)
(1.00043 -0.00291409 0)
(0.998983 -0.00423687 0)
(0.99744 -0.00305475 0)
(0.996069 -0.00134393 0)
(0.995467 -0.00105164 0)
(0.995058 0.00070479 0)
(0.994796 0.00286719 0)
(0.995157 0.00433041 0)
(0.99572 0.00588609 0)
(0.99655 0.00750981 0)
(0.997434 0.00866591 0)
(1.00064 -0.00465393 0)
(0.996003 0.00242122 0)
(0.998851 -0.00101941 0)
(0.998184 -0.00358236 0)
(0.994152 0.000957858 0)
(0.996867 0.00206009 0)
(1.00014 0.00315344 0)
(1.00206 0.00215236 0)
(1.00266 -0.00221373 0)
(1.00035 -0.00276934 0)
(0.998988 -0.00390033 0)
(0.997623 -0.00302648 0)
(0.996219 -0.00118959 0)
(0.995624 -0.000800489 0)
(0.995367 0.000719331 0)
(0.995113 0.00290425 0)
(0.995435 0.00439977 0)
(0.99603 0.00577317 0)
(0.996855 0.00725511 0)
(0.997651 0.00845541 0)
(1.00064 -0.00441248 0)
(0.996139 0.00210398 0)
(0.998745 -0.000795213 0)
(0.998316 -0.00355393 0)
(0.99439 0.00101335 0)
(0.996977 0.00191239 0)
(1.00016 0.00285218 0)
(1.00184 0.00210004 0)
(1.00244 -0.00215604 0)
(1.00028 -0.00264506 0)
(0.998985 -0.00355105 0)
(0.997801 -0.00297692 0)
(0.996389 -0.00106221 0)
(0.995778 -0.000524298 0)
(0.99567 0.000755952 0)
(0.995447 0.00288889 0)
(0.995714 0.00444614 0)
(0.99632 0.00569258 0)
(0.997158 0.00700692 0)
(0.997886 0.00820043 0)
(1.00063 -0.00416727 0)
(0.996282 0.00178835 0)
(0.998643 -0.00057851 0)
(0.998447 -0.00351621 0)
(0.994632 0.00105168 0)
(0.997078 0.00179148 0)
(1.00019 0.00253648 0)
(1.00162 0.0020516 0)
(1.00222 -0.00208386 0)
(1.00021 -0.00254927 0)
(0.998976 -0.00318821 0)
(0.997972 -0.00289641 0)
(0.996581 -0.000965945 0)
(0.995931 -0.000237964 0)
(0.995959 0.000828182 0)
(0.995794 0.00283303 0)
(0.996003 0.00445506 0)
(0.996595 0.00563179 0)
(0.997451 0.00678232 0)
(0.998136 0.00791208 0)
(1.00063 -0.00391946 0)
(0.996431 0.00147765 0)
(0.998545 -0.000372345 0)
(0.998577 -0.00346744 0)
(0.994877 0.00106731 0)
(0.997167 0.00170138 0)
(1.00022 0.00221204 0)
(1.00141 0.00200361 0)
(1.00199 -0.00198664 0)
(1.00016 -0.00248319 0)
(0.998965 -0.00282064 0)
(0.998129 -0.0027673 0)
(0.996795 -0.000912884 0)
(0.99609 4.69868e-05 0)
(0.996229 0.000941784 0)
(0.996147 0.00275702 0)
(0.996305 0.00442005 0)
(0.996858 0.00557437 0)
(0.997728 0.00659101 0)
(0.998394 0.00761391 0)
(1.00062 -0.00366988 0)
(0.996587 0.00117166 0)
(0.998451 -0.000174937 0)
(0.998704 -0.00340989 0)
(0.995127 0.00106064 0)
(0.997245 0.00163769 0)
(1.00025 0.00188343 0)
(1.00121 0.0019484 0)
(1.00175 -0.00186327 0)
(1.00013 -0.00244666 0)
(0.998957 -0.00246531 0)
(0.998267 -0.00257888 0)
(0.997027 -0.00088836 0)
(0.996262 0.000308005 0)
(0.996476 0.00110011 0)
(0.996496 0.00268616 0)
(0.996621 0.0043415 0)
(0.997118 0.0055008 0)
(0.997985 0.00642703 0)
(0.998648 0.00733167 0)
(1.00061 -0.00341945 0)
(0.996749 0.000872429 0)
(0.998363 1.15147e-05 0)
(0.998826 -0.00334126 0)
(0.995381 0.00103055 0)
(0.997311 0.00159955 0)
(1.00029 0.00155351 0)
(1.00102 0.00188236 0)
(1.00151 -0.00170103 0)
(1.0001 -0.00243711 0)
(0.99896 -0.00213491 0)
(0.998386 -0.00233565 0)
(0.997271 -0.000872807 0)
(0.996453 0.000509264 0)
(0.996702 0.00128773 0)
(0.996831 0.00264055 0)
(0.996948 0.00423323 0)
(0.997381 0.00540244 0)
(0.998228 0.00627122 0)
(0.998891 0.00707546 0)
(1.0006 -0.00316863 0)
(0.996917 0.000580633 0)
(0.998281 0.000183616 0)
(0.998942 -0.0032636 0)
(0.995641 0.000976259 0)
(0.997364 0.00159001 0)
(1.00032 0.00123173 0)
(1.00085 0.001798 0)
(1.00126 -0.00149152 0)
(1.00008 -0.00243876 0)
(0.998978 -0.00185133 0)
(0.998483 -0.00203611 0)
(0.997517 -0.000850896 0)
(0.996667 0.000643287 0)
(0.996917 0.0014749 0)
(0.997146 0.00262363 0)
(0.997279 0.00411097 0)
(0.997648 0.00528416 0)
(0.99846 0.00611264 0)
(0.999121 0.00683994 0)
(1.00058 -0.00291892 0)
(0.997091 0.000295371 0)
(0.998205 0.000345429 0)
(0.999051 -0.00318091 0)
(0.995908 0.000898204 0)
(0.997406 0.0016081 0)
(1.00035 0.000928882 0)
(1.00071 0.00168175 0)
(1.001 -0.00123894 0)
(1.00006 -0.00243068 0)
(0.99902 -0.00163169 0)
(0.998564 -0.00169619 0)
(0.997753 -0.00080039 0)
(0.996903 0.000712506 0)
(0.997127 0.00164112 0)
(0.997438 0.00263352 0)
(0.997607 0.00398294 0)
(0.997921 0.00514679 0)
(0.998686 0.00594761 0)
(0.999339 0.00661401 0)
(1.00056 -0.00267099 0)
(0.99727 1.94053e-05 0)
(0.998137 0.00049488 0)
(0.99915 -0.00308246 0)
(0.996183 0.000787519 0)
(0.997437 0.0016525 0)
(1.00037 0.000653015 0)
(1.00059 0.00153229 0)
(1.00074 -0.000948069 0)
(1.00003 -0.00238978 0)
(0.999088 -0.00148183 0)
(0.998635 -0.00135249 0)
(0.99797 -0.000707018 0)
(0.997158 0.000736546 0)
(0.997342 0.00177148 0)
(0.997708 0.00266738 0)
(0.997927 0.00385981 0)
(0.998198 0.00499146 0)
(0.998908 0.00577712 0)
(0.999545 0.0063954 0)
(1.00055 -0.00242692 0)
(0.997455 -0.000241705 0)
(0.998078 0.000628509 0)
(0.999239 -0.00296483 0)
(0.996466 0.000645325 0)
(0.997459 0.00171193 0)
(1.00038 0.000415232 0)
(1.0005 0.00134092 0)
(1.00047 -0.000644765 0)
(0.999986 -0.00228905 0)
(0.99918 -0.00139949 0)
(0.998706 -0.00103116 0)
(0.998163 -0.000553728 0)
(0.997422 0.000748556 0)
(0.997569 0.00185651 0)
(0.997959 0.0027139 0)
(0.998232 0.00375335 0)
(0.998478 0.0048193 0)
(0.999129 0.00559623 0)
(0.99974 0.00618026 0)
(1.00053 -0.00218712 0)
(0.997644 -0.000486277 0)
(0.99803 0.000741927 0)
(0.999315 -0.00282369 0)
(0.996757 0.000466443 0)
(0.997475 0.00177876 0)
(1.00037 0.000229549 0)
(1.00044 0.00110489 0)
(1.00022 -0.000347479 0)
(0.99992 -0.00211705 0)
(0.99929 -0.00136898 0)
(0.998789 -0.000755564 0)
(0.998333 -0.000355424 0)
(0.997683 0.000771131 0)
(0.997807 0.00189581 0)
(0.998199 0.00275344 0)
(0.998516 0.00367426 0)
(0.998753 0.0046428 0)
(0.999351 0.00540138 0)
(0.999931 0.005961 0)
(1.0005 -0.00195499 0)
(0.997838 -0.000708314 0)
(0.997995 0.000827192 0)
(0.999375 -0.00265288 0)
(0.997056 0.000248925 0)
(0.997492 0.00184565 0)
(1.00034 0.000109455 0)
(1.00042 0.000837871 0)
(0.999985 -7.85718e-05 0)
(0.999826 -0.00186781 0)
(0.999411 -0.00135968 0)
(0.998894 -0.000542107 0)
(0.998485 -0.000133315 0)
(0.997933 0.000821025 0)
(0.998055 0.00190495 0)
(0.998435 0.00276739 0)
(0.998779 0.00361633 0)
(0.999017 0.00448094 0)
(0.999572 0.00519649 0)
(1.00012 0.0057308 0)
(1.00048 -0.0017319 0)
(0.998033 -0.000906585 0)
(0.997974 0.000881731 0)
(0.999418 -0.00244389 0)
(0.997362 1.22162e-05 0)
(0.997515 0.00188963 0)
(1.00029 6.51061e-05 0)
(1.00041 0.000556411 0)
(0.999785 0.000141856 0)
(0.999706 -0.00155479 0)
(0.999527 -0.00133531 0)
(0.999024 -0.00040042 0)
(0.998629 0.000100542 0)
(0.998164 0.000899715 0)
(0.998302 0.00190182 0)
(0.998671 0.00275352 0)
(0.999029 0.00355913 0)
(0.999263 0.00434283 0)
(0.999784 0.00499413 0)
(1.00031 0.00548805 0)
(1.00045 -0.00151896 0)
(0.998229 -0.00107804 0)
(0.997971 0.000901584 0)
(0.999444 -0.00219487 0)
(0.99767 -0.00023539 0)
(0.997553 0.00189286 0)
(1.00021 9.89091e-05 0)
(1.00043 0.000280734 0)
(0.999625 0.000300631 0)
(0.999564 -0.00120395 0)
(0.999627 -0.00127119 0)
(0.999181 -0.000320123 0)
(0.998775 0.000310956 0)
(0.998373 0.000996279 0)
(0.998543 0.00189365 0)
(0.998908 0.00272114 0)
(0.999271 0.00349124 0)
(0.999494 0.00422291 0)
(0.999979 0.00481531 0)
(1.00049 0.00525076 0)
(1.00043 -0.00131939 0)
(0.998423 -0.00121661 0)
(0.997988 0.000880194 0)
(0.999451 -0.00191017 0)
(0.997975 -0.000484014 0)
(0.997612 0.00183959 0)
(1.00011 0.000197817 0)
(1.00045 3.42086e-05 0)
(0.999513 0.000380181 0)
(0.999409 -0.000840221 0)
(0.9997 -0.00115228 0)
(0.999357 -0.000280915 0)
(0.998932 0.000469601 0)
(0.998564 0.00110518 0)
(0.998774 0.00188635 0)
(0.999144 0.00267428 0)
(0.99951 0.00341324 0)
(0.999718 0.00410097 0)
(1.00016 0.00465598 0)
(1.00064 0.00504002 0)
(1.0004 -0.00113435 0)
(0.998613 -0.00132084 0)
(0.998027 0.000817315 0)
(0.999441 -0.00159883 0)
(0.998268 -0.000710576 0)
(0.997699 0.0017139 0)
(0.999983 0.000346278 0)
(1.00048 -0.000152902 0)
(0.999452 0.000389025 0)
(0.999258 -0.000496326 0)
(0.99974 -0.000975132 0)
(0.99954 -0.000258216 0)
(0.999107 0.000576297 0)
(0.998744 0.00121669 0)
(0.998989 0.00188611 0)
(0.999377 0.0026095 0)
(0.999744 0.00332549 0)
(0.999935 0.00397578 0)
(1.00033 0.00449645 0)
(1.00077 0.00486521 0)
(1.00037 -0.00096605 0)
(0.998796 -0.00138874 0)
(0.99809 0.000720589 0)
(0.999418 -0.0012873 0)
(0.998543 -0.000887427 0)
(0.997819 0.00151904 0)
(0.999856 0.000513931 0)
(1.00048 -0.000243753 0)
(0.999437 0.000346308 0)
(0.999122 -0.000194676 0)
(0.999747 -0.000757095 0)
(0.999718 -0.000228616 0)
(0.999301 0.000645025 0)
(0.998919 0.00132206 0)
(0.999184 0.00190159 0)
(0.999603 0.00253262 0)
(0.99998 0.00321729 0)
(1.00015 0.0038537 0)
(1.0005 0.00433043 0)
(1.00088 0.00469678 0)
(1.00034 -0.000814983 0)
(0.99897 -0.00142228 0)
(0.998175 0.000598237 0)
(0.999386 -0.000988749 0)
(0.998791 -0.000996334 0)
(0.997971 0.00127577 0)
(0.999736 0.000663565 0)
(1.00048 -0.00024204 0)
(0.999456 0.000280085 0)
(0.999013 5.1375e-05 0)
(0.999728 -0.00051998 0)
(0.999884 -0.000175319 0)
(0.999515 0.000689577 0)
(0.999098 0.00141115 0)
(0.999358 0.00193446 0)
(0.999814 0.00246379 0)
(1.00022 0.0030888 0)
(1.00036 0.00372532 0)
(1.00066 0.00417572 0)
(1.001 0.00450618 0)
(1.00031 -0.000683011 0)
(0.999131 -0.00141747 0)
(0.998282 0.000452315 0)
(0.999351 -0.000714404 0)
(0.999006 -0.00102819 0)
(0.998148 0.00100677 0)
(0.999637 0.000763862 0)
(1.00045 -0.000177512 0)
(0.999499 0.00022771 0)
(0.998937 0.000237768 0)
(0.99969 -0.000280488 0)
(1.00003 -9.70009e-05 0)
(0.999742 0.000713619 0)
(0.999287 0.00147406 0)
(0.999517 0.00196997 0)
(1 0.0024088 0)
(1.00045 0.00295116 0)
(1.00058 0.00357249 0)
(1.00082 0.00404196 0)
(1.00111 0.00431917 0)
(1.00029 -0.000571156 0)
(0.999278 -0.00137752 0)
(0.998407 0.000295131 0)
(0.999322 -0.000478643 0)
(0.999187 -0.000989922 0)
(0.998339 0.000740806 0)
(0.999567 0.000799028 0)
(1.00041 -7.86479e-05 0)
(0.999555 0.000213839 0)
(0.998892 0.000381324 0)
(0.999644 -5.16819e-05 0)
(1.00016 3.6879e-06 0)
(0.999977 0.000727044 0)
(0.999489 0.00151823 0)
(0.999665 0.00200869 0)
(1.00016 0.00236883 0)
(1.00067 0.00281745 0)
(1.00081 0.00338601 0)
(1.00098 0.00389465 0)
(1.0012 0.00416282 0)
(1.00026 -0.000476634 0)
(0.999409 -0.00130869 0)
(0.998545 0.000134552 0)
(0.999303 -0.000287723 0)
(0.999334 -0.000898326 0)
(0.998535 0.000503136 0)
(0.999528 0.000775354 0)
(1.00037 2.66835e-05 0)
(0.999619 0.000240574 0)
(0.998874 0.000510553 0)
(0.999594 0.000159752 0)
(1.00026 0.000115074 0)
(1.00021 0.000733157 0)
(0.999709 0.00153713 0)
(0.99981 0.00205141 0)
(1.0003 0.00234888 0)
(1.00087 0.00270669 0)
(1.00105 0.00319055 0)
(1.00117 0.00370248 0)
(1.0013 0.00402401 0)
(1.00024 -0.00040064 0)
(0.999521 -0.00121432 0)
(0.998692 -1.74383e-05 0)
(0.999299 -0.000147783 0)
(0.999449 -0.000771093 0)
(0.998725 0.000313814 0)
(0.99952 0.000707426 0)
(1.00033 0.000117115 0)
(0.999691 0.000292897 0)
(0.998876 0.000639805 0)
(0.99954 0.000364314 0)
(1.00034 0.00023467 0)
(1.00045 0.000737914 0)
(0.99995 0.00152554 0)
(0.999961 0.00207993 0)
(1.00042 0.00234327 0)
(1.00103 0.00261976 0)
(1.00128 0.00301869 0)
(1.00139 0.00347704 0)
(1.00141 0.00385891 0)
(1.00022 -0.000341281 0)
(0.999616 -0.0011017 0)
(0.998841 -0.000152995 0)
(0.999311 -6.17508e-05 0)
(0.999539 -0.000626313 0)
(0.9989 0.000186834 0)
(0.999537 0.000617665 0)
(1.00032 0.000173157 0)
(0.999775 0.00035286 0)
(0.998901 0.000766504 0)
(0.999484 0.000566512 0)
(1.00039 0.00036757 0)
(1.00066 0.000747513 0)
(1.00021 0.00149743 0)
(1.00013 0.00208708 0)
(1.00052 0.00234645 0)
(1.00117 0.0025477 0)
(1.00147 0.00287645 0)
(1.00161 0.00325966 0)
(1.00156 0.00364113 0)
(1.0002 -0.000293518 0)
(0.999692 -0.000982729 0)
(0.998986 -0.000263668 0)
(0.99934 -2.26476e-05 0)
(0.999612 -0.000480569 0)
(0.999056 0.000113844 0)
(0.999567 0.000530898 0)
(1.00032 0.000193854 0)
(0.999876 0.000398262 0)
(0.998947 0.000892528 0)
(0.999427 0.000769952 0)
(1.00041 0.00051151 0)
(1.00086 0.000761338 0)
(1.00047 0.00145053 0)
(1.00031 0.00207355 0)
(1.00061 0.00235232 0)
(1.00128 0.00249073 0)
(1.00164 0.00274756 0)
(1.00181 0.00307854 0)
(1.00175 0.00339811 0)
(1.00018 -0.000256287 0)
(0.999752 -0.000863858 0)
(0.999122 -0.00033828 0)
(0.999386 -2.24017e-05 0)
(0.999673 -0.000349408 0)
(0.999191 8.54617e-05 0)
(0.999604 0.000463921 0)
(1.00033 0.000193781 0)
(0.999998 0.000400326 0)
(0.999023 0.0010011 0)
(0.99937 0.000983488 0)
(1.0004 0.000674765 0)
(1.00103 0.000794514 0)
(1.00075 0.00138496 0)
(1.00052 0.00203285 0)
(1.0007 0.00235619 0)
(1.00136 0.00245777 0)
(1.00179 0.00262573 0)
(1.00199 0.00292268 0)
(1.00194 0.00317437 0)
(1.00016 -0.000225817 0)
(0.999799 -0.000752939 0)
(0.999245 -0.000374098 0)
(0.999444 -4.93874e-05 0)
(0.999731 -0.000246164 0)
(0.999306 9.42303e-05 0)
(0.999638 0.000427143 0)
(1.00034 0.000193956 0)
(1.00014 0.00036684 0)
(0.999141 0.00106122 0)
(0.999324 0.00118984 0)
(1.00035 0.00086121 0)
(1.00116 0.000851196 0)
(1.00101 0.00131765 0)
(1.00075 0.00195308 0)
(1.00081 0.00233833 0)
(1.0014 0.00244674 0)
(1.0019 0.00252381 0)
(1.00214 0.00277133 0)
(1.0021 0.00299135 0)
(1.00015 -0.000198856 0)
(0.999836 -0.000655816 0)
(0.999353 -0.00037583 0)
(0.999508 -8.58476e-05 0)
(0.999791 -0.000177129 0)
(0.999409 0.000124714 0)
(0.999668 0.000420069 0)
(1.00035 0.000207493 0)
(1.00029 0.000320842 0)
(0.999303 0.00106431 0)
(0.999304 0.00136954 0)
(1.00028 0.00106966 0)
(1.00123 0.00093417 0)
(1.00125 0.00127094 0)
(1.00101 0.00184911 0)
(1.00095 0.00227928 0)
(1.00144 0.00243659 0)
(1.00197 0.00245556 0)
(1.00228 0.00261908 0)
(1.00224 0.00283552 0)
(1.00013 -0.00017428 0)
(0.999866 -0.000571142 0)
(0.999447 -0.000356831 0)
(0.999573 -0.000112974 0)
(0.999856 -0.000138844 0)
(0.999505 0.000158358 0)
(0.999692 0.000438744 0)
(1.00034 0.000246726 0)
(1.00044 0.000275489 0)
(0.999509 0.00100408 0)
(0.999326 0.00150024 0)
(1.00018 0.00128211 0)
(1.00125 0.00104618 0)
(1.00145 0.00124426 0)
(1.00127 0.00174506 0)
(1.00112 0.00218389 0)
(1.00149 0.00239829 0)
(1.002 0.00241661 0)
(1.00239 0.00247942 0)
(1.00236 0.00267986 0)
(1.00012 -0.000151265 0)
(0.99989 -0.000498258 0)
(0.999527 -0.000323039 0)
(0.999633 -0.000123797 0)
(0.999924 -0.000121194 0)
(0.999603 0.000180846 0)
(0.999717 0.000474418 0)
(1.00032 0.000313917 0)
(1.00056 0.000256778 0)
(0.999747 0.000898691 0)
(0.999404 0.00155765 0)
(1.00008 0.00148004 0)
(1.00121 0.00118805 0)
(1.0016 0.00123805 0)
(1.00151 0.00164842 0)
(1.00131 0.00207298 0)
(1.00156 0.00232119 0)
(1.002 0.00238191 0)
(1.00245 0.00237309 0)
(1.00247 0.00251722 0)
(1.00011 -0.000128542 0)
(0.999911 -0.000437481 0)
(0.999598 -0.000280537 0)
(0.999687 -0.000114978 0)
(0.999992 -0.000110186 0)
(0.999703 0.000185928 0)
(0.999747 0.000508263 0)
(1.00028 0.000398526 0)
(1.00065 0.000277168 0)
(0.999998 0.000787223 0)
(0.999548 0.00152562 0)
(1 0.00163591 0)
(1.00113 0.0013524 0)
(1.00169 0.0012669 0)
(1.00173 0.0015581 0)
(1.00152 0.00195778 0)
(1.00167 0.0022189 0)
(1.002 0.00232511 0)
(1.00247 0.00230119 0)
(1.00255 0.00236316 0)
(1.0001 -0.000106266 0)
(0.999929 -0.000384146 0)
(0.999662 -0.00023737 0)
(0.999732 -8.76276e-05 0)
(1.00005 -9.69557e-05 0)
(0.999808 0.000180821 0)
(0.999792 0.000534313 0)
(1.00024 0.000491654 0)
(1.0007 0.000337757 0)
(1.00024 0.000698873 0)