/*--------------------------------*- C++ -*----------------------------------*\
| =========                 |                                                 |
| \\      /  F ield         | OpenFOAM: The Open Source CFD Toolbox           |
|  \\    /   O peration     | Version:  2106                                  |
|   \\  /    A nd           | Website:  www.openfoam.com                      |
|    \\/     M anipulation  |                                                 |
\*---------------------------------------------------------------------------*/
FoamFile
{
    version     2.0;
    format      ascii;
    arch        "LSB;label=32;scalar=64";
    class       surfaceScalarField;
    location    "0.955";
    object      phi;
}
// * * * * * * * * * * * * * * * * * * * * * * * * * * * * * * * * * * * * * //

dimensions      [0 3 -1 0 0 0 0];

oriented        oriented;

internalField   nonuniform List<scalar> 
19000
(
1.16736e-06
-7.43095e-07
1.19851e-06
9.97096e-07
1.19929e-06
-5.89588e-07
1.1668e-06
4.69895e-07
1.17173e-06
-2.0759e-07
1.18632e-06
-2.64063e-07
1.22419e-06
-2.40871e-07
1.20864e-06
-1.46681e-07
1.21457e-06
7.76046e-08
1.19788e-06
4.60692e-07
1.186e-06
1.15994e-07
1.17993e-06
2.05834e-07
1.18518e-06
1.23558e-07
1.18589e-06
2.53446e-09
1.18803e-06
-1.7864e-07
1.17976e-06
-1.33144e-07
1.19002e-06
-1.52125e-07
1.17971e-06
-1.58633e-07
1.18886e-06
-1.79519e-08
-2.52013e-07
1.1363e-06
1.22695e-06
-7.45784e-07
1.26139e-06
9.62651e-07
1.26241e-06
-5.90602e-07
1.23266e-06
4.99647e-07
1.23457e-06
-2.09503e-07
1.2476e-06
-2.77093e-07
1.28468e-06
-2.77952e-07
1.27143e-06
-1.33431e-07
1.2729e-06
7.61349e-08
1.26475e-06
4.68841e-07
1.24534e-06
1.35403e-07
1.24724e-06
2.03937e-07
1.24149e-06
1.29302e-07
1.25205e-06
-8.0241e-09
1.2415e-06
-1.68092e-07
1.24736e-06
-1.38997e-07
1.23881e-06
-1.43577e-07
1.24949e-06
-1.69309e-07
1.23344e-06
-1.90346e-09
-2.38542e-07
1.21997e-06
1.28833e-06
-7.51332e-07
1.32696e-06
9.24025e-07
1.32521e-06
-5.88857e-07
1.30503e-06
5.19829e-07
1.29885e-06
-2.03326e-07
1.31261e-06
-2.90844e-07
1.34465e-06
-3.09996e-07
1.33996e-06
-1.28738e-07
1.33394e-06
8.21478e-08
1.33528e-06
4.67505e-07
1.30905e-06
1.61634e-07
1.31438e-06
1.98609e-07
1.30369e-06
1.39988e-07
1.31218e-06
-1.65174e-08
1.29939e-06
-1.55297e-07
1.30345e-06
-1.4306e-07
1.29646e-06
-1.36587e-07
1.30189e-06
-1.74735e-07
1.29812e-06
1.86164e-09
-2.176e-07
1.27718e-06
1.35139e-06
-7.58614e-07
1.39059e-06
8.84824e-07
1.38545e-06
-5.83716e-07
1.37598e-06
5.29299e-07
1.36143e-06
-1.88778e-07
1.37568e-06
-3.05095e-07
1.40128e-06
-3.35593e-07
1.40634e-06
-1.338e-07
1.39833e-06
9.01531e-08
1.40235e-06
4.6349e-07
1.37664e-06
1.87342e-07
1.378e-06
1.97246e-07
1.36893e-06
1.49059e-07
1.36952e-06
-1.7108e-08
1.35888e-06
-1.44657e-07
1.35919e-06
-1.43371e-07
1.3547e-06
-1.32096e-07
1.35673e-06
-1.76765e-07
1.35642e-06
2.17775e-09
-1.95488e-07
1.33431e-06
1.41574e-06
-7.66004e-07
1.45144e-06
8.49124e-07
1.44333e-06
-5.75601e-07
1.44241e-06
5.30219e-07
1.42287e-06
-1.69237e-07
1.4357e-06
-3.17932e-07
1.45507e-06
-3.54962e-07
1.46703e-06
-1.45756e-07
1.4636e-06
9.35852e-08
1.4664e-06
4.60683e-07
1.44499e-06
2.0876e-07
1.44164e-06
2.00589e-07
1.43397e-06
1.5673e-07
1.4293e-06
-1.24328e-08
1.41928e-06
-1.34635e-07
1.41872e-06
-1.42818e-07
1.41443e-06
-1.27805e-07
1.41473e-06
-1.77066e-07
1.4153e-06
1.61355e-09
-1.73235e-07
1.39304e-06
1.48163e-06
-7.71962e-07
1.51094e-06
8.19816e-07
1.50106e-06
-5.65715e-07
1.50539e-06
5.25887e-07
1.4858e-06
-1.49654e-07
1.49541e-06
-3.27536e-07
1.50909e-06
-3.68641e-07
1.52391e-06
-1.60575e-07
1.527e-06
9.0491e-08
1.52907e-06
4.58609e-07
1.51179e-06
2.26045e-07
1.50632e-06
2.06057e-07
1.49901e-06
1.64044e-07
1.49254e-06
-5.97012e-09
1.48264e-06
-1.2473e-07
1.48204e-06
-1.42216e-07
1.47793e-06
-1.23699e-07
1.47618e-06
-1.75313e-07
1.47762e-06
1.75944e-10
-1.50692e-07
1.45507e-06
1.54969e-06
-7.75435e-07
1.57178e-06
7.9772e-07
1.56136e-06
-5.55286e-07
1.56837e-06
5.18876e-07
1.55259e-06
-1.33873e-07
1.55842e-06
-3.33374e-07
1.56665e-06
-3.76867e-07
1.58086e-06
-1.74782e-07
1.5881e-06
8.32505e-08
1.59122e-06
4.55484e-07
1.57729e-06
2.39977e-07
1.57208e-06
2.11262e-07
1.56561e-06
1.70523e-07
1.55962e-06
2.10048e-11
1.55032e-06
-1.15438e-07
1.54954e-06
-1.41438e-07
1.54585e-06
-1.20003e-07
1.54195e-06
-1.71419e-07
1.54407e-06
-1.93495e-09
-1.28134e-07
1.52151e-06
1.62068e-06
-7.75988e-07
1.63662e-06
7.81786e-07
1.62637e-06
-5.45036e-07
1.63476e-06
5.10486e-07
1.62429e-06
-1.23402e-07
1.62697e-06
-3.36057e-07
1.62993e-06
-3.79832e-07
1.64116e-06
-1.86007e-07
1.64894e-06
7.54652e-08
1.65411e-06
4.50317e-07
1.64342e-06
2.50665e-07
1.63995e-06
2.14738e-07
1.63525e-06
1.75224e-07
1.63095e-06
4.318e-09
1.6227e-06
-1.07185e-07
1.62152e-06
-1.40262e-07
1.61824e-06
-1.16724e-07
1.61239e-06
-1.65568e-07
1.61494e-06
-4.48874e-09
-1.05967e-07
1.59278e-06
1.69529e-06
-7.73706e-07
1.70709e-06
7.69987e-07
1.69718e-06
-5.35128e-07
1.70655e-06
5.01123e-07
1.70091e-06
-1.17765e-07
1.70145e-06
-3.36598e-07
1.69968e-06
-3.78066e-07
1.70682e-06
-1.93143e-07
1.71256e-06
6.97213e-08
1.7198e-06
4.43079e-07
1.71249e-06
2.57975e-07
1.71147e-06
2.15756e-07
1.70904e-06
1.77659e-07
1.70676e-06
6.59663e-09
1.69969e-06
-1.00118e-07
1.69788e-06
-1.38449e-07
1.69499e-06
-1.1383e-07
1.68741e-06
-1.57994e-07
1.69017e-06
-7.25093e-09
-8.46295e-08
1.66884e-06
1.774e-06
-7.68983e-07
1.78373e-06
7.6026e-07
1.774e-06
-5.25407e-07
1.78427e-06
4.90854e-07
1.782e-06
-1.15489e-07
1.78126e-06
-3.3586e-07
1.77566e-06
-3.72464e-07
1.77879e-06
-1.96271e-07
1.78151e-06
6.70022e-08
1.79044e-06
4.34146e-07
1.78636e-06
2.62048e-07
1.78791e-06
2.14206e-07
1.78766e-06
1.77912e-07
1.78705e-06
7.20472e-09
1.78111e-06
-9.41795e-08
1.77843e-06
-1.35764e-07
1.7759e-06
-1.11301e-07
1.76686e-06
-1.48958e-07
1.76952e-06
-9.91052e-09
-6.45795e-08
1.74947e-06
1.85707e-06
-7.62303e-07
1.8663e-06
7.51032e-07
1.85652e-06
-5.15632e-07
1.86768e-06
4.79699e-07
1.86713e-06
-1.14943e-07
1.86565e-06
-3.34384e-07
1.85724e-06
-3.6405e-07
1.85727e-06
-1.96298e-07
1.85721e-06
6.7054e-08
1.86748e-06
4.23885e-07
1.86614e-06
2.63384e-07
1.86987e-06
2.10473e-07
1.87138e-06
1.76403e-07
1.87177e-06
6.8122e-09
1.8668e-06
-8.92055e-08
1.86306e-06
-1.32025e-07
1.86084e-06
-1.09078e-07
1.85067e-06
-1.38787e-07
1.85283e-06
-1.20706e-08
-4.62604e-08
1.83451e-06
1.94462e-06
-7.54085e-07
1.95433e-06
7.41329e-07
1.94431e-06
-5.05613e-07
1.95631e-06
4.67692e-07
1.95616e-06
-1.14794e-07
1.95423e-06
-3.32445e-07
1.9439e-06
-3.53722e-07
1.94204e-06
-1.94438e-07
1.94008e-06
6.90146e-08
1.95144e-06
4.12522e-07
1.95217e-06
2.62652e-07
1.95743e-06
2.05212e-07
1.96021e-06
1.73631e-07
1.9609e-06
6.1197e-09
1.9567e-06
-8.5012e-08
1.95184e-06
-1.27159e-07
1.94978e-06
-1.07018e-07
1.93887e-06
-1.27878e-07
1.94014e-06
-1.33401e-08
-3.00095e-08
1.92389e-06
2.03674e-06
-7.44631e-07
2.04742e-06
7.3064e-07
2.03703e-06
-4.95221e-07
2.04988e-06
4.54839e-07
2.04923e-06
-1.14142e-07
2.04697e-06
-3.30179e-07
2.03536e-06
-3.42115e-07
2.0327e-06
-1.91783e-07
2.02978e-06
7.19359e-08
2.04212e-06
4.00186e-07
2.0443e-06
2.60473e-07
2.05039e-06
1.99117e-07
2.05403e-06
1.69998e-07
2.05445e-06
5.69395e-09
2.05088e-06
-8.14382e-08
2.04494e-06
-1.21218e-07
2.0428e-06
-1.04885e-07
2.0316e-06
-1.16672e-07
2.03168e-06
-1.34228e-08
-1.59839e-08
2.01765e-06
2.1335e-06
-7.34132e-07
2.14539e-06
7.18748e-07
2.13453e-06
-4.84354e-07
2.14826e-06
4.41101e-07
2.14661e-06
-1.1249e-07
2.14412e-06
-3.27684e-07
2.1316e-06
-3.29594e-07
2.1289e-06
-1.89084e-07
2.12576e-06
7.50778e-08
2.13895e-06
3.8699e-07
2.14213e-06
2.57293e-07
2.14848e-06
1.92773e-07
2.15274e-06
1.65737e-07
2.15252e-06
5.90804e-09
2.14943e-06
-7.83467e-08
2.14259e-06
-1.1438e-07
2.14009e-06
-1.02378e-07
2.12902e-06
-1.05607e-07
2.12781e-06
-1.22074e-08
-4.1068e-09
2.11593e-06
2.23506e-06
-7.22707e-07
2.24822e-06
7.05588e-07
2.23677e-06
-4.72902e-07
2.25146e-06
4.26411e-07
2.24861e-06
-1.09637e-07
2.246e-06
-3.25072e-07
2.23274e-06
-3.16337e-07
2.23038e-06
-1.86723e-07
2.22747e-06
7.79891e-08
2.24137e-06
3.73089e-07
2.24531e-06
2.53356e-07
2.25148e-06
1.86599e-07
2.25628e-06
1.60935e-07
2.25525e-06
6.93637e-09
2.2525e-06
-7.55928e-08
2.24505e-06
-1.06934e-07
2.24185e-06
-9.9171e-08
2.23129e-06
-9.50541e-08
2.22887e-06
-9.77895e-09
5.89299e-09
2.21887e-06
2.3416e-06
-7.10429e-07
2.35603e-06
6.91157e-07
2.34386e-06
-4.60738e-07
2.35957e-06
4.10701e-07
2.3555e-06
-1.05564e-07
2.35291e-06
-3.22481e-07
2.339e-06
-3.02427e-07
2.33708e-06
-1.848e-07
2.33461e-06
8.04576e-08
2.349e-06
3.58694e-07
2.35362e-06
2.48739e-07
2.35935e-06
1.80866e-07
2.36469e-06
1.55593e-07
2.36286e-06
8.77259e-09
2.36026e-06
-7.29934e-08
2.35255e-06
-9.92283e-08
2.34835e-06
-9.49694e-08
2.33856e-06
-8.52635e-08
2.33516e-06
-6.37622e-09
1.43938e-08
2.32666e-06
2.45331e-06
-6.97347e-07
2.469e-06
6.75472e-07
2.45599e-06
-4.4773e-07
2.47277e-06
3.93924e-07
2.46755e-06
-1.00343e-07
2.46511e-06
-3.20044e-07
2.45061e-06
-2.87922e-07
2.44904e-06
-1.83239e-07
2.44709e-06
8.24081e-08
2.46173e-06
3.4406e-07
2.46705e-06
2.43414e-07
2.47219e-06
1.75732e-07
2.47807e-06
1.49709e-07
2.47559e-06
1.12571e-08
2.47291e-06
-7.03153e-08
2.46529e-06
-9.16101e-08
2.45994e-06
-8.96228e-08
2.45096e-06
-7.62793e-08
2.44692e-06
-2.34023e-09
2.17842e-08
2.43953e-06
2.57044e-06
-6.83489e-07
2.58737e-06
6.58543e-07
2.5734e-06
-4.33765e-07
2.59126e-06
3.76062e-07
2.58499e-06
-9.40708e-08
2.58282e-06
-3.1787e-07
2.56779e-06
-2.729e-07
2.56644e-06
-1.81881e-07
2.56503e-06
8.38101e-08
2.57963e-06
3.29462e-07
2.58573e-06
2.37312e-07
2.59021e-06
1.71258e-07
2.59658e-06
1.43333e-07
2.59371e-06
1.41315e-08
2.5907e-06
-6.73034e-08
2.58344e-06
-8.43525e-08
2.57701e-06
-8.31964e-08
2.56864e-06
-6.79066e-08
2.56437e-06
1.93227e-09
2.83952e-08
2.55776e-06
2.69321e-06
-6.68872e-07
2.71138e-06
6.40376e-07
2.69638e-06
-4.18761e-07
2.71531e-06
3.57128e-07
2.70808e-06
-8.68462e-08
2.70623e-06
-3.16019e-07
2.6908e-06
-2.57471e-07
2.68946e-06
-1.80538e-07
2.68866e-06
8.4614e-08
2.70295e-06
3.15173e-07
2.7099e-06
2.30362e-07
2.71373e-06
1.67423e-07
2.72046e-06
1.36602e-07
2.71752e-06
1.70769e-08
2.71392e-06
-6.3708e-08
2.70718e-06
-7.76138e-08
2.69991e-06
-7.59238e-08
2.69183e-06
-5.9822e-08
2.68768e-06
6.07346e-09
3.44489e-08
2.68163e-06
2.8219e-06
-6.53501e-07
2.8413e-06
6.20971e-07
2.82522e-06
-4.02677e-07
2.84519e-06
3.37159e-07
2.8371e-06
-7.87594e-08
2.83558e-06
-3.14496e-07
2.81988e-06
-2.41776e-07
2.81836e-06
-1.79012e-07
2.81825e-06
8.4724e-08
2.83197e-06
3.01447e-07
2.83981e-06
2.22522e-07
2.84311e-06
1.64127e-07
2.84997e-06
1.29736e-07
2.84728e-06
1.97693e-08
2.8429e-06
-5.93263e-08
2.83669e-06
-7.14039e-08
2.82892e-06
-6.81502e-08
2.82082e-06
-5.17228e-08
2.81702e-06
9.8685e-09
4.00033e-08
2.81147e-06
2.95677e-06
-6.37377e-07
2.97741e-06
6.00335e-07
2.96024e-06
-3.8551e-07
2.98119e-06
3.16215e-07
2.97233e-06
-6.9901e-08
2.97108e-06
-3.13253e-07
2.95529e-06
-2.25987e-07
2.95339e-06
-1.77104e-07
2.95411e-06
8.40027e-08
2.96706e-06
2.88498e-07
2.97578e-06
2.13798e-07
2.9787e-06
1.61208e-07
2.98543e-06
1.23003e-07
2.98327e-06
2.19353e-08
2.978e-06
-5.40589e-08
2.97217e-06
-6.5573e-08
2.96429e-06
-6.02673e-08
2.956e-06
-4.34316e-08
2.95255e-06
1.3313e-08
4.49723e-08
2.94758e-06
3.09813e-06
-6.20504e-07
3.11999e-06
5.78482e-07
3.10177e-06
-3.6729e-07
3.1236e-06
2.9438e-07
3.11407e-06
-6.03722e-08
3.11302e-06
-3.12198e-07
3.09733e-06
-2.10296e-07
3.09484e-06
-1.74615e-07
3.09654e-06
8.23026e-08
3.10856e-06
2.76471e-07
3.1181e-06
2.04265e-07
3.12086e-06
1.58441e-07
3.12717e-06
1.167e-07
3.12573e-06
2.3377e-08
3.11961e-06
-4.79412e-08
3.11388e-06
-5.98488e-08
3.10623e-06
-5.26103e-08
3.09776e-06
-3.49624e-08
3.09448e-06
1.65861e-08
4.92154e-08
3.09024e-06
3.24629e-06
-6.02888e-07
3.26933e-06
5.55444e-07
3.25012e-06
-3.48077e-07
3.27274e-06
2.7176e-07
3.26266e-06
-5.02924e-08
3.26166e-06
-3.11201e-07
3.24628e-06
-1.94913e-07
3.24301e-06
-1.7135e-07
3.24582e-06
7.94979e-08
3.25688e-06
2.65414e-07
3.26706e-06
1.94078e-07
3.26993e-06
1.55569e-07
3.27554e-06
1.11099e-07
3.27489e-06
2.40254e-08
3.2681e-06
-4.11506e-08
3.26216e-06
-5.39087e-08
3.25494e-06
-4.53963e-08
3.24647e-06
-2.64888e-08
3.24313e-06
1.9922e-08
5.26606e-08
3.23969e-06
3.40159e-06
-5.84542e-07
3.42576e-06
5.31264e-07
3.40565e-06
-3.27959e-07
3.42891e-06
2.48494e-07
3.41842e-06
-3.98035e-08
3.41733e-06
-3.10109e-07
3.40248e-06
-1.80061e-07
3.39826e-06
-1.67133e-07
3.40225e-06
7.55147e-08
3.41238e-06
2.55282e-07
3.42299e-06
1.83466e-07
3.42623e-06
1.52327e-07
3.43091e-06
1.0642e-07
3.43101e-06
2.39271e-08
3.4238e-06
-3.39414e-08
3.41737e-06
-4.74791e-08
3.41066e-06
-3.86876e-08
3.40247e-06
-1.82957e-08
3.39888e-06
2.35153e-08
5.53736e-08
3.39616e-06
3.56435e-06
-5.65484e-07
3.58961e-06
5.06007e-07
3.56871e-06
-3.07055e-07
3.59246e-06
2.24745e-07
3.58172e-06
-2.90687e-08
3.58036e-06
-3.08751e-07
3.56626e-06
-1.65963e-07
3.56096e-06
-1.61828e-07
3.56613e-06
7.03434e-08
3.57546e-06
2.45951e-07
3.58623e-06
1.72698e-07
3.59006e-06
1.48498e-07
3.59371e-06
1.02768e-07
3.59436e-06
2.32752e-08
3.58704e-06
-2.66185e-08
3.57994e-06
-4.03797e-08
3.57367e-06
-3.24235e-08
3.56605e-06
-1.06712e-08
3.56215e-06
2.74174e-08
5.75622e-08
3.55996e-06
3.73496e-06
-5.45744e-07
3.76122e-06
4.79753e-07
3.73967e-06
-2.8551e-07
3.76371e-06
2.00708e-07
3.75291e-06
-1.82683e-08
3.75111e-06
-3.06951e-07
3.73797e-06
-1.52825e-07
3.73149e-06
-1.55342e-07
3.73779e-06
6.40398e-08
3.7465e-06
2.37241e-07
3.75713e-06
1.62071e-07
3.76171e-06
1.43921e-07
3.76433e-06
1.00145e-07
3.76525e-06
2.23498e-08
3.75813e-06
-1.94954e-08
3.75029e-06
-3.25354e-08
3.74432e-06
-2.64622e-08
3.73749e-06
-3.83622e-09
3.73337e-06
3.1534e-08
5.94924e-08
3.73144e-06
3.9138e-06
-5.25355e-07
3.94095e-06
4.52606e-07
3.91894e-06
-2.63501e-07
3.94304e-06
1.76601e-07
3.93237e-06
-7.59057e-09
3.92995e-06
-3.04538e-07
3.91795e-06
-1.40825e-07
3.91025e-06
-1.4764e-07
3.91758e-06
5.67165e-08
3.92587e-06
2.28942e-07
3.93608e-06
1.51866e-07
3.94149e-06
1.38509e-07
3.94317e-06
9.84663e-08
3.94403e-06
2.149e-08
3.93739e-06
-1.28612e-08
3.92885e-06
-2.39862e-08
3.92302e-06
-2.06413e-08
3.91708e-06
2.10878e-09
3.91294e-06
3.56744e-08
6.13889e-08
3.91104e-06
4.10126e-06
-5.04364e-07
4.12918e-06
4.24689e-07
4.1069e-06
-2.41229e-07
4.13085e-06
1.52657e-07
4.12048e-06
2.77975e-09
4.1173e-06
-3.01357e-07
4.10658e-06
-1.30107e-07
4.09768e-06
-1.38739e-07
4.10586e-06
4.85304e-08
4.11396e-06
2.20849e-07
4.1235e-06
1.42326e-07
4.12976e-06
1.32247e-07
4.13062e-06
9.7607e-08
4.13107e-06
2.10354e-08
4.12514e-06
-6.92498e-09
4.11611e-06
-1.49553e-08
4.11019e-06
-1.47294e-08
4.10515e-06
7.156e-09
4.10122e-06
3.9605e-08
6.33863e-08
4.09922e-06
4.29776e-06
-4.82821e-07
4.3263e-06
3.96144e-07
4.304e-06
-2.18921e-07
4.32754e-06
1.29111e-07
4.31765e-06
1.26741e-08
4.31356e-06
-2.97272e-07
4.30423e-06
-1.20772e-07
4.29419e-06
-1.28704e-07
4.30305e-06
3.96757e-08
4.31115e-06
2.12743e-07
4.31977e-06
1.33707e-07
4.32688e-06
1.25142e-07
4.32705e-06
9.74383e-08
4.32676e-06
2.13209e-08
4.3217e-06
-1.86328e-09
4.31252e-06
-5.77946e-09
4.30631e-06
-8.51862e-09
4.30205e-06
1.14157e-08
4.29857e-06
4.30853e-08
6.55217e-08
4.29644e-06
4.50374e-06
-4.60787e-07
4.53275e-06
3.67135e-07
4.51064e-06
-1.96816e-07
4.53357e-06
1.06184e-07
4.52429e-06
2.19529e-08
4.5192e-06
-2.9218e-07
4.51131e-06
-1.12883e-07
4.50024e-06
-1.17635e-07
4.50955e-06
3.037e-08
4.5179e-06
2.04394e-07
4.52531e-06
1.26295e-07
4.53322e-06
1.17237e-07
4.53284e-06
9.78163e-08
4.53153e-06
2.2628e-08
4.52743e-06
2.23854e-09
4.51855e-06
3.09647e-09
4.5119e-06
-1.86841e-09
4.5082e-06
1.51153e-08
4.50539e-06
4.58988e-08
6.7736e-08
4.50318e-06
4.71966e-06
-4.38332e-07
4.74896e-06
3.3784e-07
4.72728e-06
-1.75146e-07
4.74941e-06
8.40539e-08
4.74085e-06
3.05121e-08
4.73467e-06
-2.85996e-07
4.72826e-06
-1.06474e-07
4.71629e-06
-1.05665e-07
4.7258e-06
2.08628e-08
4.73464e-06
1.95555e-07
4.74053e-06
1.20403e-07
4.74912e-06
1.0864e-07
4.74853e-06
9.84134e-08
4.74589e-06
2.52699e-08
4.7427e-06
5.42563e-09
4.73461e-06
1.11817e-08
4.72751e-06
5.23059e-09
4.72406e-06
1.85707e-08
4.72203e-06
4.79238e-08
6.98499e-08
4.71992e-06
4.946e-06
-4.1553e-07
4.97539e-06
3.08443e-07
4.95436e-06
-1.5411e-07
4.97557e-06
6.28407e-08
4.9678e-06
3.82833e-08
4.96044e-06
-2.7864e-07
4.95553e-06
-1.01563e-07
4.94281e-06
-9.29426e-08
4.95223e-06
1.1447e-08
4.96182e-06
1.85961e-07
4.96591e-06
1.16313e-07
4.97494e-06
9.9617e-08
4.97462e-06
9.87281e-08
4.97057e-06
2.93188e-08
4.96797e-06
8.03116e-09
4.96106e-06
1.80851e-08
4.95371e-06
1.25864e-08
4.95016e-06
2.21224e-08
4.94888e-06
4.92038e-08
7.15753e-08
4.94715e-06
5.18325e-06
-3.92462e-07
5.21257e-06
2.79124e-07
5.19232e-06
-1.33866e-07
5.21257e-06
4.25931e-08
5.20562e-06
4.5229e-08
5.19702e-06
-2.70033e-07
5.19361e-06
-9.81514e-08
5.18031e-06
-7.96475e-08
5.1893e-06
2.46153e-09
5.19989e-06
1.7537e-07
5.2021e-06
1.14099e-07
5.211e-06
9.07148e-08
5.21155e-06
9.81805e-08
5.2063e-06
3.45693e-08
5.20379e-06
1.0539e-08
5.19828e-06
2.35958e-08
5.191e-06
1.98719e-08
5.18712e-06
2.59951e-08
5.18634e-06
4.99919e-08
7.26126e-08
5.1853e-06
5.43194e-06
-3.69213e-07
5.46101e-06
2.5005e-07
5.44165e-06
-1.14504e-07
5.46096e-06
2.32893e-08
5.45486e-06
5.13214e-08
5.44491e-06
-2.60077e-07
5.443e-06
-9.62414e-08
5.4293e-06
-6.5955e-08
5.43746e-06
-5.69287e-09
5.44927e-06
1.63556e-07
5.44979e-06
1.13583e-07
5.45781e-06
8.26966e-08
5.45971e-06
9.62788e-08
5.45372e-06
4.05527e-08
5.45084e-06
1.34287e-08
5.44667e-06
2.77617e-08
5.43984e-06
2.66989e-08
5.4356e-06
3.02375e-08
5.43494e-06
5.06533e-08
7.28088e-08
5.43474e-06
5.69261e-06
-3.45868e-07
5.7213e-06
2.21364e-07
5.70285e-06
-9.60538e-08
5.72125e-06
4.89292e-09
5.71609e-06
5.64802e-08
5.70465e-06
-2.48645e-07
5.70426e-06
-9.58444e-08
5.69037e-06
-5.20661e-08
5.69719e-06
-1.25108e-08
5.71037e-06
1.50372e-07
5.70964e-06
1.14317e-07
5.71609e-06
7.62399e-08
5.71955e-06
9.28225e-08
5.71345e-06
4.66511e-08
5.70979e-06
1.70896e-08
5.70672e-06
3.08328e-08
5.70068e-06
3.27403e-08
5.6962e-06
3.47178e-08
5.69535e-06
5.15006e-08
7.22685e-08
5.69589e-06
5.96584e-06
-3.22519e-07
5.99402e-06
1.9319e-07
5.97646e-06
-7.84925e-08
5.99394e-06
-1.25934e-08
5.98989e-06
6.05339e-08
5.97684e-06
-2.35592e-07
5.9779e-06
-9.69105e-08
5.96412e-06
-3.82877e-08
5.96901e-06
-1.73949e-08
5.98357e-06
1.35805e-07
5.98224e-06
1.15654e-07
5.98668e-06
7.18e-08
5.99153e-06
8.79714e-08
5.98596e-06
5.22244e-08
5.98141e-06
2.16378e-08
5.97901e-06
3.32271e-08
5.97396e-06
3.77954e-08
5.96949e-06
3.91896e-08
5.96829e-06
5.26946e-08
7.13002e-08
5.96926e-06
6.25223e-06
-2.9926e-07
6.27977e-06
1.65648e-07
6.26309e-06
-6.18107e-08
6.27954e-06
-2.90432e-08
6.2769e-06
6.3175e-08
6.26206e-06
-2.20758e-07
6.26442e-06
-9.92651e-08
6.2512e-06
-2.50657e-08
6.25358e-06
-1.97823e-08
6.26926e-06
1.20128e-07
6.26811e-06
1.1681e-07
6.27039e-06
6.95147e-08
6.27617e-06
8.21897e-08
6.27167e-06
5.67252e-08
6.26639e-06
2.69185e-08
6.26422e-06
3.53978e-08
6.26018e-06
4.1835e-08
6.25599e-06
4.33774e-08
6.25448e-06
5.42119e-08
7.02491e-08
6.25553e-06
6.55241e-06
-2.76197e-07
6.57918e-06
1.38876e-07
6.56344e-06
-4.60705e-08
6.57857e-06
-4.41791e-08
6.57782e-06
6.39291e-08
6.56104e-06
-2.03975e-07
6.5643e-06
-1.02532e-07
6.55223e-06
-1.29936e-08
6.5517e-06
-1.92498e-08
6.56791e-06
1.03914e-07
6.56778e-06
1.16939e-07
6.56812e-06
6.91748e-08
6.57411e-06
7.62048e-08
6.57108e-06
5.97576e-08
6.56537e-06
3.26231e-08
6.56307e-06
3.76953e-08
6.55993e-06
4.49786e-08
6.55625e-06
4.70607e-08
6.55455e-06
5.59083e-08
6.93542e-08
6.55545e-06
6.86704e-06
-2.53444e-07
6.89286e-06
1.13056e-07
6.87823e-06
-3.14392e-08
6.89166e-06
-5.76083e-08
6.89334e-06
6.22443e-08
6.87456e-06
-1.85197e-07
6.87806e-06
-1.06031e-07
6.86784e-06
-2.77501e-09
6.86434e-06
-1.57443e-08
6.88026e-06
8.79909e-08
6.88188e-06
1.15318e-07
6.88066e-06
7.03976e-08
6.88614e-06
7.07223e-08
6.88467e-06
6.12338e-08
6.87898e-06
3.83123e-08
6.87633e-06
4.03446e-08
6.87387e-06
4.74339e-08
6.87081e-06
5.01174e-08
6.86913e-06
5.75894e-08
6.87008e-08
6.86979e-06
7.19682e-06
-2.31128e-07
7.22145e-06
8.84312e-08
7.20822e-06
-1.82143e-08
7.21945e-06
-6.88413e-08
7.22411e-06
5.75885e-08
7.20353e-06
-1.64615e-07
7.20634e-06
-1.08838e-07
7.1986e-06
4.95594e-09
7.19253e-06
-9.6684e-09
7.20711e-06
7.3414e-08
7.2109e-06
1.11523e-07
7.20872e-06
7.25748e-08
7.21315e-06
6.62981e-08
7.21304e-06
6.13372e-08
7.2078e-06
4.35588e-08
7.20474e-06
4.34007e-08
7.20272e-06
4.94559e-08
7.20033e-06
5.25103e-08
7.19884e-06
5.90783e-08
6.82484e-08
7.19929e-06
7.54249e-06
-2.09393e-07
7.5656e-06
6.5321e-08
7.55418e-06
-6.78999e-09
7.56271e-06
-7.73735e-08
7.57056e-06
4.97404e-08
7.54879e-06
-1.42849e-07
7.54995e-06
-1.10002e-07
7.54499e-06
9.92457e-09
7.53721e-06
-1.89193e-09
7.5495e-06
6.11201e-08
7.55533e-06
1.05694e-07
7.55292e-06
7.49884e-08
7.55602e-06
6.31964e-08
7.55691e-06
6.04452e-08
7.55246e-06
4.80089e-08
7.54909e-06
4.67692e-08
7.54724e-06
5.13097e-08
7.54548e-06
5.42693e-08
7.5443e-06
6.02541e-08
6.78975e-08
7.54466e-06
7.90481e-06
-1.88391e-07
7.92609e-06
4.40362e-08
7.91686e-06
2.43993e-09
7.92221e-06
-8.27157e-08
7.93291e-06
3.90373e-08
7.91116e-06
-1.21097e-07
7.90987e-06
-1.08713e-07
7.9075e-06
1.22887e-08
7.89906e-06
6.5549e-09
7.9086e-06
5.15768e-08
7.91584e-06
9.84586e-08
7.9138e-06
7.70216e-08
7.91562e-06
6.13804e-08
7.91706e-06
5.90038e-08
7.91362e-06
5.14484e-08
7.91015e-06
5.02357e-08
7.90826e-06
5.32094e-08
7.90702e-06
5.55003e-08
7.90625e-06
6.10251e-08
6.75625e-08
7.90659e-06
8.28457e-06
-1.68283e-07
8.30378e-06
2.48285e-08
8.29705e-06
9.1745e-09
8.29879e-06
-8.44601e-08
8.3116e-06
2.62269e-08
8.29135e-06
-1.00841e-07
8.28711e-06
-1.04475e-07
8.28675e-06
1.26419e-08
8.27859e-06
1.47173e-08
8.28542e-06
4.47484e-08
8.29327e-06
9.06128e-08
8.29199e-06
7.82928e-08
8.29276e-06
6.06149e-08
8.29436e-06
5.74043e-08
8.29198e-06
5.38292e-08
8.28869e-06
5.35283e-08
8.28663e-06
5.52643e-08
8.28572e-06
5.64147e-08
8.28544e-06
6.13048e-08
6.71754e-08
8.28582e-06
8.68261e-06
-1.49227e-07
8.69956e-06
7.87903e-09
8.69547e-06
1.32599e-08
8.6935e-06
-8.24862e-08
8.7074e-06
1.2318e-08
8.69002e-06
-8.34577e-08
8.68278e-06
-9.72342e-08
8.68348e-06
1.1947e-08
8.67636e-06
2.18302e-08
8.68084e-06
4.02681e-08
8.68863e-06
8.28279e-08
8.68822e-06
7.86984e-08
8.68819e-06
6.06473e-08
8.68971e-06
5.58798e-08
8.6883e-06
5.52414e-08
8.68545e-06
5.63815e-08
8.68329e-06
5.74232e-08
8.68243e-06
5.72782e-08
8.68265e-06
6.1085e-08
6.6638e-08
8.68318e-06
9.09977e-06
-1.31374e-07
9.11429e-06
-6.64846e-09
9.11288e-06
1.46697e-08
9.10769e-06
-7.72953e-08
9.12126e-06
-1.24492e-09
9.10776e-06
-6.99622e-08
9.09802e-06
-8.74913e-08
9.09868e-06
1.12862e-08
9.09293e-06
2.75787e-08
9.09567e-06
3.75239e-08
9.10298e-06
7.55253e-08
9.10333e-06
7.83438e-08
9.10275e-06
6.12284e-08
9.10403e-06
5.46001e-08
9.10345e-06
5.58207e-08
9.1012e-06
5.86309e-08
9.09911e-06
5.95121e-08
9.09811e-06
5.82761e-08
9.09867e-06
6.05262e-08
6.57802e-08
9.09953e-06
9.53695e-06
-1.14861e-07
9.54895e-06
-1.86475e-08
9.55004e-06
1.3577e-08
9.54253e-06
-6.97854e-08
9.55425e-06
-1.29696e-08
9.54501e-06
-6.07136e-08
9.53387e-06
-7.63597e-08
9.53352e-06
1.16396e-08
9.52907e-06
3.2033e-08
9.53069e-06
3.5898e-08
9.53732e-06
6.89016e-08
9.53829e-06
7.73733e-08
9.53732e-06
6.21983e-08
9.53824e-06
5.36779e-08
9.53835e-06
5.57062e-08
9.53679e-06
6.01909e-08
9.53496e-06
6.13462e-08
9.53382e-06
5.94147e-08
9.53441e-06
5.99319e-08
6.44733e-08
9.53572e-06
9.99508e-06
-9.98075e-08
1.00045e-05
-2.80572e-08
1.00077e-05
1.03226e-08
9.99896e-06
-6.09974e-08
1.00077e-05
-2.17111e-08
1.00023e-05
-5.53419e-08
9.99128e-06
-6.53107e-08
9.98942e-06
1.34995e-08
9.98574e-06
3.57095e-08
9.98665e-06
3.4987e-08
9.99261e-06
6.29491e-08
9.99413e-06
7.58496e-08
9.99287e-06
6.34547e-08
9.99333e-06
5.32169e-08
9.99395e-06
5.50899e-08
9.99315e-06
6.09909e-08
9.9917e-06
6.28001e-08
9.99056e-06
6.05483e-08
9.99093e-06
5.95596e-08
6.27928e-08
9.99262e-06
1.04751e-05
-8.63069e-08
1.04819e-05
-3.48347e-08
1.04869e-05
5.29347e-09
1.04779e-05
-5.19225e-08
1.0483e-05
-2.68844e-08
1.04805e-05
-5.27818e-08
1.0471e-05
-5.5791e-08
1.04677e-05
1.67225e-08
1.04641e-05
3.9327e-08
1.04644e-05
3.4695e-08
1.04698e-05
5.75468e-08
1.04718e-05
7.38196e-08
1.04705e-05
6.4804e-08
1.04704e-05
5.33436e-08
1.04713e-05
5.41978e-08
1.04712e-05
6.10059e-08
1.04703e-05
6.37845e-08
1.04693e-05
6.15182e-08
1.04694e-05
5.94546e-08
6.10437e-08
1.04711e-05
1.09781e-05
-7.44211e-08
1.09823e-05
-3.89654e-08
1.09887e-05
-1.11247e-09
1.09802e-05
-4.34325e-08
1.09817e-05
-2.84155e-08
1.09805e-05
-5.16045e-08
1.09736e-05
-4.88212e-08
1.09696e-05
2.06392e-08
1.09655e-05
4.34603e-08
1.0965e-05
3.51752e-08
1.09699e-05
5.26731e-08
1.09725e-05
7.12298e-08
1.09712e-05
6.60592e-08
1.09705e-05
5.40721e-08
1.09714e-05
5.33079e-08
1.09721e-05
6.03184e-08
1.09717e-05
6.41965e-08
1.0971e-05
6.22115e-08
1.0971e-05
5.946e-08
5.95704e-08
1.09725e-05
1.15051e-05
-6.41619e-08
1.15067e-05
-4.05392e-08
1.1514e-05
-8.39652e-09
1.15068e-05
-3.63087e-08
1.15051e-05
-2.66811e-08
1.15037e-05
-5.02375e-08
1.14998e-05
-4.48502e-08
1.14962e-05
2.42101e-08
1.14912e-05
4.84143e-08
1.14897e-05
3.67609e-08
1.14939e-05
4.84208e-08
1.14971e-05
6.80284e-08
1.14962e-05
6.69868e-08
1.14949e-05
5.53143e-08
1.14956e-05
5.26553e-08
1.14968e-05
5.91558e-08
1.1497e-05
6.39493e-08
1.14966e-05
6.25834e-08
1.14967e-05
5.93467e-08
5.84785e-08
1.14978e-05
1.20571e-05
-5.54707e-08
1.20564e-05
-3.98358e-08
1.20639e-05
-1.58856e-08
1.20587e-05
-3.1135e-08
1.20546e-05
-2.25044e-08
1.20516e-05
-4.72742e-08
1.20502e-05
-4.34712e-08
1.20483e-05
2.61302e-08
1.20427e-05
5.40587e-08
1.20396e-05
3.98178e-08
1.2043e-05
4.50208e-08
1.20467e-05
6.43179e-08
1.20464e-05
6.73057e-08
1.20449e-05
5.68562e-08
1.20451e-05
5.24341e-08
1.20465e-05
5.77357e-08
1.20474e-05
6.30548e-08
1.20474e-05
6.26203e-08
1.20477e-05
5.89974e-08
5.75749e-08
1.20486e-05
1.26353e-05
-4.82174e-08
1.26328e-05
-3.73252e-08
1.26397e-05
-2.27953e-08
1.26368e-05
-2.81969e-08
1.26312e-05
-1.69515e-08
1.26258e-05
-4.18577e-08
1.26258e-05
-4.34654e-08
1.26265e-05
2.54452e-08
1.2621e-05
5.95616e-08
1.26163e-05
4.44899e-08
1.26184e-05
4.29395e-08
1.26225e-05
6.02454e-08
1.2623e-05
6.68227e-08
1.26214e-05
5.84227e-08
1.26211e-05
5.27038e-08
1.26226e-05
5.62923e-08
1.2624e-05
6.16084e-08
1.26244e-05
6.22505e-08
1.26249e-05
5.84756e-08
5.65467e-08
1.26259e-05
1.32409e-05
-4.2202e-08
1.32373e-05
-3.36874e-08
1.32428e-05
-2.83066e-08
1.3242e-05
-2.74173e-08
1.32361e-05
-1.10835e-08
1.32284e-05
-3.41108e-08
1.32278e-05
-4.28699e-08
1.32315e-05
2.17777e-08
1.32273e-05
6.36847e-08
1.32213e-05
5.05399e-08
1.32216e-05
4.26387e-08
1.32257e-05
5.6183e-08
1.32271e-05
6.53583e-08
1.32258e-05
5.97951e-08
1.32252e-05
5.32893e-08
1.32263e-05
5.51226e-08
1.32282e-05
5.97604e-08
1.32291e-05
6.13592e-08
1.32296e-05
5.79071e-08
5.52583e-08
1.32309e-05
1.38751e-05
-3.71752e-08
1.3871e-05
-2.9585e-08
1.38745e-05
-3.18085e-08
1.38755e-05
-2.83724e-08
1.38703e-05
-5.85318e-09
1.38608e-05
-2.46467e-08
1.38579e-05
-3.99842e-08
1.3864e-05
1.57176e-08
1.38625e-05
6.51587e-08
1.38558e-05
5.72227e-08
1.38542e-05
4.42828e-08
1.38576e-05
5.27361e-08
1.38599e-05
6.30365e-08
1.38592e-05
6.05116e-08
1.38583e-05
5.41649e-08
1.38592e-05
5.4251e-08
1.38612e-05
5.78244e-08
1.38627e-05
5.98472e-08
1.38633e-05
5.72418e-08
5.38449e-08
1.38647e-05
1.45394e-05
-3.28725e-08
1.45353e-05
-2.54949e-08
1.45365e-05
-3.30835e-08
1.45384e-05
-3.02689e-08
1.45346e-05
-2.03317e-09
1.45243e-05
-1.43427e-08
1.45187e-05
-3.43177e-08
1.45253e-05
9.09387e-09
1.45272e-05
6.32126e-08
1.45211e-05
6.3327e-08
1.45176e-05
4.77638e-08
1.452e-05
5.04133e-08
1.45228e-05
6.01904e-08
1.4523e-05
6.03357e-08
1.45222e-05
5.49886e-08
1.45227e-05
5.37517e-08
1.45244e-05
5.60473e-08
1.45264e-05
5.78737e-08
1.45274e-05
5.62348e-08
5.25296e-08
1.45287e-05
1.5235e-05
-2.90344e-08
1.52313e-05
-2.17958e-08
1.52304e-05
-3.21222e-08
1.52324e-05
-3.22892e-08
1.52303e-05
6.13833e-11
1.52202e-05
-4.24938e-09
1.5212e-05
-2.61128e-08
1.52172e-05
3.92254e-09
1.52225e-05
5.79393e-08
1.52183e-05
6.74787e-08
1.52135e-05
5.25399e-08
1.52143e-05
4.96746e-08
1.52173e-05
5.71652e-08
1.52182e-05
5.94046e-08
1.52178e-05
5.53839e-08
1.52181e-05
5.3458e-08
1.52196e-05
5.45649e-08
1.52217e-05
5.57269e-08
1.52232e-05
5.47501e-08
5.12846e-08
1.52245e-05
1.59637e-05
-2.543e-08
1.59606e-05
-1.87109e-08
1.59577e-05
-2.91853e-08
1.5959e-05
-3.36178e-08
1.59586e-05
4.61045e-10
1.59497e-05
4.69167e-09
1.59398e-05
-1.62298e-08
1.59421e-05
1.64207e-09
1.59495e-05
5.0559e-08
1.59482e-05
6.87203e-08
1.59432e-05
5.75692e-08
1.59424e-05
5.04921e-08
1.59449e-05
5.46433e-08
1.59466e-05
5.77344e-08
1.59467e-05
5.52788e-08
1.5947e-05
5.31204e-08
1.59483e-05
5.33168e-08
1.59503e-05
5.36829e-08
1.59522e-05
5.28773e-08
4.99189e-08
1.59535e-05
1.67271e-05
-2.19134e-08
1.67247e-05
-1.63037e-08
1.67203e-05
-2.47875e-08
1.67201e-05
-3.34152e-08
1.67211e-05
-5.58812e-10
1.6714e-05
1.1817e-08
1.67034e-05
-5.62797e-09
1.67026e-05
2.42045e-09
1.67101e-05
4.30033e-08
1.6712e-05
6.68868e-08
1.6708e-05
6.15697e-08
1.67059e-05
5.26162e-08
1.67075e-05
5.30396e-08
1.67096e-05
5.56295e-08
1.67102e-05
5.46117e-08
1.67108e-05
5.2573e-08
1.67119e-05
5.2161e-08
1.67138e-05
5.18184e-08
1.67159e-05
5.08118e-08
4.83147e-08
1.67175e-05
1.75269e-05
-1.84206e-08
1.75252e-05
-1.4603e-08
1.75199e-05
-1.95509e-08
1.75177e-05
-3.12218e-08
1.75194e-05
-2.20503e-09
1.75144e-05
1.67801e-08
1.75041e-05
4.7094e-09
1.75008e-05
5.73268e-09
1.75068e-05
3.69415e-08
1.7511e-05
6.26695e-08
1.7509e-05
6.35834e-08
1.75062e-05
5.54166e-08
1.75069e-05
5.23858e-08
1.75088e-05
5.3676e-08
1.75102e-05
5.32965e-08
1.7511e-05
5.17565e-08
1.75122e-05
5.09626e-08
1.75139e-05
5.01062e-08
1.7516e-05
4.86852e-08
4.64842e-08
1.75178e-05
1.83649e-05
-1.49701e-08
1.83637e-05
-1.33597e-08
1.83583e-05
-1.41918e-08
1.83542e-05
-2.71438e-08
1.83555e-05
-3.51212e-09
1.83526e-05
1.97302e-08
1.83435e-05
1.37518e-08
1.83383e-05
1.09634e-08
1.83422e-05
3.30523e-08
1.83475e-05
5.73854e-08
1.83476e-05
6.34985e-08
1.83452e-05
5.7747e-08
1.83448e-05
5.2818e-08
1.83465e-05
5.20104e-08
1.8348e-05
5.17316e-08
1.83493e-05
5.04761e-08
1.83506e-05
4.96325e-08
1.83523e-05
4.84728e-08
1.83543e-05
4.66049e-08
4.44483e-08
1.83564e-05
1.92431e-05
-1.16354e-08
1.92419e-05