/*--------------------------------*- C++ -*----------------------------------*\
| =========                 |                                                 |
| \\      /  F ield         | OpenFOAM: The Open Source CFD Toolbox           |
|  \\    /   O peration     | Version:  2106                                  |
|   \\  /    A nd           | Website:  www.openfoam.com                      |
|    \\/     M anipulation  |                                                 |
\*---------------------------------------------------------------------------*/
FoamFile
{
    version     2.0;
    format      ascii;
    arch        "LSB;label=32;scalar=64";
    class       volScalarField;
    location    "0.72";
    object      p;
}
// * * * * * * * * * * * * * * * * * * * * * * * * * * * * * * * * * * * * * //

dimensions      [0 2 -2 0 0 0 0];

internalField   nonuniform List<scalar> 
9600
(
-4.99197e-11
0.00294313
0.00262157
0.00301406
0.00229462
0.00300023
0.0019551
0.00330979
0.0029532
0.00344237
0.00391796
0.00470707
0.00545606
0.00627677
0.0074139
0.00807294
0.00953144
0.0108793
0.0134312
0.0187082
2.09643e-06
0.00294012
0.00262319
0.00301441
0.00229195
0.00300164
0.00196173
0.00331158
0.00295682
0.0034421
0.00391746
0.0047072
0.00545484
0.00627353
0.0074257
0.00805623
0.00957079
0.0108397
0.0136268
0.0182671
4.59458e-06
0.00293638
0.00262639
0.00301486
0.00228969
0.00300721
0.00197043
0.0033103
0.00296252
0.00343693
0.0039175
0.00470616
0.00545144
0.00627242
0.00742643
0.00803842
0.00959034
0.0107924
0.0137039
0.0176694
7.48503e-06
0.00293283
0.00263105
0.0030172
0.00228782
0.00301442
0.00198105
0.00330735
0.00296979
0.00342709
0.00391882
0.00470457
0.00544679
0.00627243
0.0074228
0.00801959
0.00960814
0.0107418
0.013709
0.0171646
1.1378e-05
0.00292926
0.0026377
0.00302096
0.002285
0.00302207
0.0019942
0.00330333
0.00297856
0.00341474
0.00392189
0.00470205
0.0054414
0.00627069
0.00741721
0.00799858
0.00962652
0.0106851
0.0136966
0.0167197
1.65023e-05
0.00292544
0.00264654
0.0030248
0.00228071
0.00302908
0.00200955
0.00329864
0.0029888
0.00340207
0.0039268
0.00469837
0.00543541
0.00626618
0.0074098
0.0079752
0.00963952
0.0106252
0.0136542
0.0163073
2.27466e-05
0.00292125
0.00265741
0.00302813
0.00227495
0.00303489
0.00202668
0.00329356
0.0030005
0.00339067
0.00393368
0.00469396
0.00542914
0.00625848
0.00740051
0.00794907
0.00964673
0.0105637
0.0135766
0.0159199
2.98313e-05
0.00291657
0.00267014
0.00303097
0.0022679
0.00303957
0.00204533
0.00328804
0.00301373
0.0033815
0.003943
0.00468934
0.00542267
0.00624735
0.00738915
0.00792021
0.00964695
0.0105008
0.013462
0.0155537
3.74968e-05
0.00291141
0.0026846
0.00303354
0.00225992
0.00304359
0.00206538
0.00328186
0.00302862
0.00337477
0.00395516
0.00468478
0.00541601
0.00623275
0.00737543
0.00788917
0.00963811
0.0104375
0.0133033
0.0152043
4.55973e-05
0.00290579
0.00270067
0.00303607
0.00225137
0.00304727
0.00208671
0.00327482
0.00304522
0.00337045
0.00397032
0.00468041
0.00540922
0.00621488
0.00735896
0.00785679
0.00961815
0.0103743
0.0131181
0.0148655
5.40937e-05
0.00289973
0.00271822
0.00303867
0.00224256
0.00305067
0.00210923
0.00326682
0.00306351
0.00336834
0.00398835
0.00467625
0.00540232
0.00619417
0.00733921
0.00782396
0.0095856
0.0103111
0.0129027
0.0145307
6.30144e-05
0.00289324
0.00273707
0.00304134
0.00223379
0.00305367
0.00213292
0.0032579
0.00308337
0.00336707
0.00400888
0.00467207
0.00539525
0.00617134
0.00731551
0.00779146
0.00953933
0.0102465
0.0126612
0.0141943
7.24243e-05
0.00288631
0.00275706
0.00304402
0.00222532
0.00305603
0.00215784
0.00324809
0.00310461
0.00336645
0.00403139
0.00466763
0.00538777
0.00614712
0.00728713
0.00775997
0.00947871
0.010178
0.0123987
0.0138542
8.24063e-05
0.00287889
0.00277802
0.00304662
0.00221738
0.00305751
0.00218406
0.00323743
0.0031271
0.003366
0.00405526
0.00466281
0.00537934
0.00612225
0.00725344
0.00772954
0.00940388
0.0101028
0.0121198
0.0135022
9.3052e-05
0.00287093
0.00279986
0.00304907
0.00221016
0.00305791
0.00221169
0.00322593
0.00315078
0.00336541
0.00407993
0.00465759
0.00536928
0.00609753
0.00721388
0.00769961
0.00931579
0.0100175
0.0118292
0.0131402
0.000104459
0.00286231
0.00282252
0.00305131
0.00220383
0.00305705
0.00224081
0.00321356
0.00317555
0.00336448
0.00410492
0.00465221
0.00535685
0.00607347
0.0071681
0.00766931
0.00921587
0.0099185
0.0115308
0.0127688
0.000116735
0.00285294
0.002846
0.00305326
0.00219855
0.00305477
0.00227148
0.0032003
0.00320128
0.00336326
0.00412968
0.00464715
0.00534127
0.00605015
0.00711628
0.00763666
0.00910578
0.00980387
0.0112274
0.0123892
0.00013
0.00284266
0.00287033
0.00305486
0.00219444
0.00305099
0.00230368
0.00318614
0.00322791
0.00336199
0.00415353
0.00464294
0.00532185
0.00602732
0.00705899
0.00759908
0.00898662
0.00967259
0.0109208
0.0120033
0.000144387
0.00283133
0.00289553
0.00305603
0.00219161
0.00304563
0.00233736
0.0031711
0.00325524
0.00336099
0.00417585
0.00463999
0.00529823
0.00600443
0.00699697
0.00755405
0.00885881
0.00952473
0.0106123
0.0116132
0.000160048
0.00281877
0.00292162
0.0030567
0.00219015
0.00303861
0.00237244
0.00315531
0.00328294
0.00336071
0.00419603
0.00463855
0.00527031
0.00598052
0.00693094
0.00749959
0.00872267
0.00936141
0.0103016
0.0112213
0.00017715
0.00280478
0.00294862
0.00305681
0.00219014
0.00302993
0.00240881
0.00313894
0.0033106
0.00336169
0.00421351
0.00463874
0.0052381
0.00595429
0.00686126
0.00743513
0.00857852
0.00918397
0.00998907
0.01083
0.000195878
0.00278917
0.00297652
0.00305631
0.00219163
0.00301963
0.00244627
0.00312227
0.00333771
0.00336444
0.00422782
0.00464051
0.00520191
0.00592447
0.00678803
0.00736008
0.00842621
0.00899296
0.0096747
0.0104406
0.000216428
0.00277171
0.00300533
0.00305517
0.00219461
0.00300781
0.00248452
0.00310572
0.00336377
0.0033692
0.00423864
0.0046436
0.00516229
0.00588994
0.00671116
0.007274
0.00826532
0.00879197
0.00935878
0.0100534
0.000239015
0.00275218
0.00303498
0.0030534
0.00219903
0.00299467
0.00252319
0.00308974
0.00338833
0.00337615
0.00424587
0.00464728
0.00511968
0.00584985
0.0066303
0.00717666
0.00809596
0.0085822
0.00904183
0.00966796
0.000263864
0.00273035
0.0030654
0.00305105
0.00220477
0.0029805
0.00256185
0.00307474
0.00341105
0.00338546
0.00424957
0.00465064
0.00507422
0.00580365
0.00654515
0.00706777
0.0079184
0.00836475
0.00872467
0.00928343
0.000291213
0.00270599
0.00309646
0.00304826
0.00221162
0.00296565
0.00260003
0.00306107
0.00343158
0.00339686
0.00425021
0.00465326
0.00502578
0.0057505
0.00645568
0.00694719
0.00773233
0.00814136
0.00840881
0.00889871
0.000321294
0.00267889
0.00312797
0.00304521
0.00221938
0.00295027
0.00263713
0.00304898
0.00344991
0.00340981
0.00424799
0.004655
0.00497394
0.00568917
0.00636199
0.00681539
0.00753727
0.00791374
0.0080965
0.00851301
0.000354344
0.0026489
0.00315966
0.00304213
0.00222772
0.00293528
0.00267274
0.00303862
0.0034662
0.00342381
0.00424278
0.00465558
0.00491827
0.00561837
0.00626429
0.0066738
0.00733272
0.00768275
0.00779059
0.00812689
0.000390631
0.00261589
0.00319115
0.00303935
0.00223611
0.00292178
0.00270664
0.00302988
0.00348059
0.00343843
0.00423439
0.00465476
0.00485863
0.0055368
0.00616273
0.00652464
0.00711796
0.00744798
0.00749403
0.00774361
0.000430412
0.00257985
0.00322197
0.00303727
0.00224406
0.00290997
0.00273875
0.00302248
0.00349341
0.00345322
0.00422228
0.00465222
0.00479511
0.00544322
0.00605711
0.00637057
0.00689304
0.00720754
0.00720833
0.00736937
0.000473893
0.00254079
0.0032515
0.00303635
0.00225115
0.00290024
0.00276919
0.003016
0.0035049
0.00346793
0.00420577
0.00464729
0.00472817
0.00533688
0.00594674
0.00621426
0.00665933
0.0069583
0.00693177
0.00701075
0.000521277
0.00249888
0.00327905
0.00303705
0.00225698
0.00289295
0.00279822
0.00300979
0.00351531
0.00348234
0.00418412
0.00463911
0.00465898
0.0052172
0.0058301
0.00605865
0.00641902
0.00669771
0.00666057
0.00667151
0.000572771
0.0024544
0.00330375
0.00303984
0.00226116
0.00288819
0.00282646
0.00300318
0.00352482
0.0034965
0.0041562
0.00462649
0.00458916
0.00508415
0.005705
0.00590625
0.00617503
0.00642494
0.00639066
0.00635162
0.000628498
0.0024077
0.0033247
0.0030452
0.00226351
0.00288568
0.00285484
0.0029955
0.00353311
0.0035107
0.00412083
0.00460793
0.00452066
0.004939
0.00556855
0.00575785
0.0059317
0.00614063
0.00611772
0.00604849
0.000688523
0.00235924
0.00334097
0.00305364
0.00226397
0.00288496
0.00288422
0.00298614
0.00353961
0.00352542
0.00407686
0.00458123
0.004456
0.00478454
0.00541714
0.00561226
0.00569464
0.00584712
0.00583757
0.00575794
0.000752891
0.00230956
0.00335164
0.00306552
0.00226251
0.00288539
0.00291556
0.00297447
0.00354342
0.00354179
0.00402366
0.00454344
0.00439736
0.00462472
0.00524781
0.00546656
0.00546898
0.00554878
0.00554687
0.00547434
0.000821548
0.00225925
0.00335589
0.0030811
0.00225925
0.002886
0.00294993
0.00296018
0.00354323
0.00356111
0.00396133
0.004491
0.00434527
0.00446496
0.00505894
0.00531531
0.00525811
0.0052521
0.00524467
0.00519107
0.000894452
0.00220889
0.00335296
0.0031006
0.00225444
0.00288547
0.00298848
0.00294328
0.00353691
0.0035846
0.00389144
0.00441993
0.00429749
0.00431221
0.00485196
0.00515079
0.0050615
0.00496528
0.00493382
0.00490272
0.00097152
0.0021591
0.00334213
0.00312419
0.00224845
0.00288227
0.00303217
0.00292436
0.00352125
0.00361303
0.00381837
0.00432722
0.00424888
0.00417273
0.00463224
0.0049658
0.00487406
0.00469588
0.00462097
0.00460701
0.00105253
0.00211059
0.00332277
0.00315187
0.00224193
0.00287453
0.00308149
0.00290484
0.00349283
0.00364558
0.0037489
0.00421246
0.00419192
0.00404932
0.00440775
0.00475744
0.00468714
0.00444682
0.004315
0.00430548
0.00113715
0.00206419
0.00329427
0.00318363
0.00223584
0.00285974
0.00313614
0.00288736
0.00344859
0.00368018
0.00369095
0.00407813
0.00411764
0.00394061
0.00418795
0.00452857
0.00449137
0.00421498
0.00402339
0.00400329
0.00122486
0.00202089
0.00325614
0.00321914
0.0022317
0.00283508
0.0031949
0.00287612
0.00338627
0.00371438
0.00365181
0.00393049
0.00401835
0.00384148
0.00398149
0.00428507
0.00428055
0.00399408
0.00374925
0.00370602
0.00131494
0.00198181
0.00320802
0.00325764
0.0022317
0.00279817
0.0032554
0.00287623
0.00330549
0.00373373
0.00363433
0.00377955
0.00388993
0.00374295
0.00379353
0.0040352
0.00405242
0.00377665
0.00349328
0.00341845
0.00140656
0.00194825
0.00314982
0.00329767
0.00223875
0.00274766
0.00331329
0.00289229
0.00320901
0.00372987
0.00363762
0.00363826
0.00373342
0.00363274
0.00362348
0.0037896
0.00380931
0.00355525
0.00325343
0.00314587
0.00149873
0.00192164
0.00308181
0.003337
0.00225632
0.00268325
0.00336147
0.00292773
0.00310355
0.00369504
0.00365593
0.00351833
0.00355497
0.00350018
0.0034659
0.00355765
0.00355832
0.00332474
0.0030231
0.00289228
0.00159062
0.00190327
0.00300501
0.00337241
0.00228769
0.00260634
0.00339136
0.00298336
0.00299912
0.00362571
0.00367633
0.00342634
0.00336634
0.00334029
0.00331071
0.00334253
0.00330857
0.00308552
0.00279374
0.00265575
0.00167959
0.00189415
0.00292113
0.00340007
0.0023351
0.00252132
0.00339483
0.00305632
0.00290758
0.00352224
0.00368355
0.00336316
0.00318209
0.00315466
0.00314693
0.00314219
0.00306785
0.00284255
0.00255968
0.00242717
0.00176539
0.00189505
0.00283247
0.00341575
0.00239877
0.00243523
0.00336617
0.00313847
0.00283906
0.00338978
0.00366552
0.00332517
0.0030146
0.00294912
0.00296703
0.00295169
0.00284055
0.00260229
0.00232184
0.00219606
0.00184686
0.00190625
0.0027425
0.00341519
0.00247743
0.00235682
0.00330291
0.00321618
0.00279946
0.00324235
0.00361525
0.0033014
0.00287132
0.00273338
0.0027673
0.00276386
0.00262815
0.00237053
0.00208641
0.00195924
0.00192299
0.0019276
0.00265497
0.00339566
0.0025669
0.00229415
0.00320712
0.00327445
0.00278978
0.00309625
0.00353234
0.00327705
0.00275367
0.00251934
0.00254847
0.00257147
0.00242996
0.00215069
0.00185851
0.00172325
0.001993
0.00195859
0.00257342
0.00335571
0.00265973
0.00225389
0.00308677
0.00330129
0.00280467
0.00296462
0.00342114
0.00324071
0.00265843
0.0023175
0.00231612
0.00236819
0.00224286
0.00194592
0.00163881
0.00149505
0.00205636
0.00199795
0.00250122
0.00329543
0.0027468
0.0022398
0.00295375
0.00328919
0.00283101
0.00285662
0.00329267
0.00318824
0.00257891
0.00213266
0.00207802
0.00215052
0.00206023
0.00176088
0.00143
0.00127478
0.00211277
0.00204374
0.00244101
0.00321716
0.00282654
0.00225173
0.00282211
0.00323571
0.00285144
0.00277263
0.00315928
0.00312049
0.00250982
0.00196637
0.00184058
0.00191955
0.00187304
0.00159518
0.00124097
0.00106148
0.00216232
0.00209346
0.00239456
0.00312465
0.00287487
0.00228545
0.00270237
0.00314711
0.00285371
0.00270448
0.00302867
0.00304093
0.00244822
0.00182059
0.001609
0.00167902
0.00167533
0.00143907
0.00108019
0.000863117
0.00220546
0.00214424
0.00236254
0.00302242
0.00289887
0.00233259
0.00260162
0.00303641
0.00282719
0.00263832
0.00290273
0.00295423
0.00239231
0.00169697
0.00138944
0.00143228
0.0014668
0.00128154
0.000944245
0.000693259
0.00224289
0.00219322
0.00234466
0.00292168
0.00289642
0.0023823
0.0025227
0.00291675
0.0027724
0.00256395
0.00277676
0.00286272
0.00234308
0.00159653
0.00118836
0.00118296
0.00124849
0.00111739
0.000819905
0.000558599
0.00227554
0.00223783
0.00233947
0.00282582
0.00286774
0.00242406
0.00246513
0.00279711
0.0026968
0.00247691
0.00264195
0.00276397
0.00230152
0.00152146
0.00101179
0.000937168
0.00102003
0.000946855
0.000697164
0.000451034
0.00230391
0.00227679
0.00234346
0.00273919
0.00281716
0.00245006
0.00242408
0.00268687
0.00260996
0.00237668
0.00249225
0.00264911
0.00226476
0.00147479
0.000866559
0.00070261
0.000781085
0.00076839
0.000572625
0.000357895
0.0023288
0.00230972
0.00235179
0.00266417
0.00275285
0.00245545
0.00239054
0.00259083
0.00252006
0.00227137
0.00232858
0.00250876
0.0022222
0.00145513
0.000761209
0.000490467
0.000536031
0.000576698
0.000444906
0.000269872
0.00235077
0.00233654
0.00236037
0.00260067
0.00268228
0.00243906
0.00235563
0.00250364
0.00243231
0.00216879
0.00215589
0.00233948
0.00215869
0.00145465
0.000699769
0.000315
0.000296118
0.000368106
0.000308625
0.000181507
0.00236984
0.00235739
0.00236635
0.0025471
0.0026099
0.00240312
0.00231284
0.00242133
0.00234881
0.00207429
0.00198771
0.00214599
0.0020617
0.00145695
0.000678003
0.000187442
7.74246e-05
0.000148229
0.000156959
8.90643e-05
0.00238566
0.00237272
0.00236816
0.00250032
0.00253936
0.0023484
0.00225895
0.00233911
0.00226861
0.00198935
0.00183523
0.00193808
0.00192536
0.00144394
0.000686515
0.000109573
-0.000102382
-6.91177e-05
-1.13906e-05
-1.15667e-05
0.00239779
0.00238309
0.00236523
0.00245668
0.00247318
0.00229439
0.00219413
0.00225264
0.00218815
0.00191275
0.00170282
0.00173467
0.00175547
0.00139886
0.000709043
7.70883e-05
-0.000233264
-0.000264157
-0.000188681
-0.000123773
0.00240559
0.00238897
0.00235762
0.0024136
0.00241106
0.00223673
0.00212086
0.00215855
0.00210394
0.0018411
0.00158899
0.00154997
0.0015667
0.00131303
0.000725844
8.24934e-05
-0.000313881
-0.000419836
-0.000359199
-0.000245256
0.00240868
0.00239031
0.00234549
0.00236948
0.00235021
0.0021781
0.00204306
0.00205691
0.00201192
0.00177034
0.00149172
0.00138725
0.00137975
0.00119603
0.000718565
0.000110815
-0.000347034
-0.000528028
-0.000504335
-0.000368006
0.00240662
0.00238668
0.00232932
0.00232361
0.00228914
0.00211938
0.00196447
0.00194945
0.00191012
0.00169529
0.00140778
0.00124711
0.00120576
0.00106408
0.000682711
0.0001432
-0.000338447
-0.000586382
-0.000609787
-0.000476539
0.00239908
0.00237222
0.00230927
0.00227607
0.00222617
0.00205979
0.00188692
0.00183883
0.00179898
0.00161208
0.00133081
0.00112899
0.0010491
0.00093191
0.000629621
0.000167866
-0.000299354
-0.00059475
-0.000666246
-0.000553115
0.00238635
0.00235804
0.0022855
0.00222709
0.00216084
0.00199747
0.00181066
0.00172828
0.00167967
0.00151848
0.00125337
0.00102863
0.000913596
0.000806239
0.000570596
0.000187507
-0.000239097
-0.000554253
-0.000666825
-0.000580876
0.00236853
0.00233814
0.00225774
0.00217691
0.00209334
0.00193129
0.00173461
0.0016197
0.00155422
0.00141301
0.00116982
0.000937799
0.000798526
0.000691701
0.000511379
0.00021067
-0.000157711
-0.000464505
-0.000603098
-0.000543466
0.0023458
0.00231274
0.00222618
0.00212565
0.00202396
0.00186091
0.00165766
0.00151346
0.00142495
0.00129557
0.00107619
0.000846568
0.000696847
0.000592497
0.000456174
0.000241596
-4.89758e-05
-0.000319321
-0.00046105
-0.000420237
0.00231848
0.00228222
0.00219081
0.00207312
0.00195335
0.0017868
0.00157856
0.00140971
0.00129436
0.0011671
0.000970808
0.000748774
0.000596682
0.000505099
0.000407788
0.000279225
9.17621e-05
-0.000107116
-0.000218893
-0.00018123
0.00228709
0.00224717
0.00215188
0.00201934
0.00188194
0.00170984
0.00149695
0.00130755
0.00116548
0.00103034
0.000852505
0.000643885
0.000490238
0.000418227
0.00036598
0.000321228
0.000261264
0.000180768
0.00014638
0.000212346
0.00225227
0.00220822
0.00210991
0.00196499
0.00181013
0.00163076
0.0014134
0.00120629
0.00103972
0.000891835
0.000723601
0.000531814
0.000378828
0.000325803
0.000330181
0.000372272
0.000456318
0.000543771
0.000647587
0.000785466
0.00221497
0.00216637
0.00206522
0.00191087
0.00173922
0.0015506
0.00132877
0.00110652
0.000917232
0.000756516
0.000596008
0.000426533
0.000287365
0.000254443
0.00033074
0.000484377
0.000716491
0.000963204
0.00115994
0.00128291
0.00217625
0.00212313
0.00201873
0.00185713
0.00167067
0.00147146
0.00124526
0.00101116
0.000799659
0.000625741
0.000476486
0.000342742
0.000247827
0.000257642
0.000400364
0.000641351
0.000948823
0.00126403
0.00149823
0.00160196
0.00213747
0.00207973
0.00197222
0.00180462
0.00160545
0.00139533
0.00116527
0.000926021
0.000698145
0.000506544
0.000364135
0.000271985
0.000253118
0.000343626
0.000550811
0.000836451
0.00114911
0.00144223
0.00164872
0.00171226
0.00210048
0.00203806
0.00192698
0.00175531
0.00154506
0.00132438
0.00109021
0.000853086
0.000627355
0.000430466
0.000281089
0.000190554
0.000190244
0.000334793
0.000618363
0.000992573
0.00138504
0.00173124
0.00196705
0.00202266
0.0020668
0.00200037
0.00188544
0.00171108
0.00149271
0.00126236
0.00102267
0.000783831
0.000567419
0.000404137
0.000316995
0.00030416
0.000342533
0.000448921
0.000635178
0.000886062
0.0011791
0.00147075
0.00170109
0.00178834
0.00203827
0.00196892
0.00185028
0.00167346
0.00145091
0.00121354
0.000974364
0.000739652
0.000520833
0.0003348
0.00020469
0.000179196
0.00026731
0.000463666
0.000770856
0.00113998
0.00150845
0.00181977
0.00202357
0.00206081
0.00201554
0.00194268
0.00182007
0.00164038
0.00141429
0.00116832
0.00092125
0.000684789
0.000472366
0.000312992
0.000225362
0.000231666
0.000335718
0.000520426
0.000781379
0.00109315
0.00141174
0.00169187
0.00188135
0.00191974
0.0266944
0.0185873
0.00868424
0.00153656
-0.0011426
-0.000857912
-6.56394e-05
0.000226331
7.82449e-05
-0.000191537
-0.000406234
-0.000602223
-0.000852112
-0.00107508
-0.00123874
-0.00146124
-0.00172621
-0.00191719
-0.00205359
-0.00220787
-0.00239702
-0.00259818
-0.00276868
-0.00291829
-0.00309681
-0.00329176
-0.00347809
-0.00367158
-0.00386662
-0.00404402
-0.0042218
-0.00440811
-0.00457701
-0.00472198
-0.0048721
-0.00503497
-0.0051972
-0.00536644
-0.0055508
-0.00573878
-0.00591796
-0.00609761
-0.00629113
-0.00648668
-0.00668067
-0.00689052
-0.00710939
-0.00733399
-0.00756196
-0.00779068
-0.00803222
-0.00828315
-0.00853735
-0.00880177
-0.00906878
-0.00932431
-0.00957002
-0.00981372
-0.0100687
-0.0103248
-0.0105716
-0.0108218
-0.0110935
-0.0113925
-0.0116853
-0.0119422
-0.0121865
-0.0124577
-0.0127275
-0.0129854
-0.0132613
-0.013561
-0.0138568
-0.0141458
-0.0144412
-0.0147368
-0.0150318
-0.0153258
-0.0156245
-0.0159237
-0.0162279
-0.0165334
-0.0168451
-0.0171605
-0.0174809
-0.0178079
-0.018138
-0.0184757
-0.0188147
-0.0191629
-0.0195183
-0.0198765
-0.0202489
-0.0206148
-0.0209999
-0.0213854
-0.0217777
-0.0221981
-0.0225756
-0.0229778
0.0252703
0.0183862
0.00876207
0.00167574
-0.00104794
-0.000810115
-3.5813e-05
0.00024702
9.29928e-05
-0.000180338
-0.00039703
-0.000594296
-0.000845392
-0.00106933
-0.0012335
-0.00145652
-0.0017222
-0.00191366
-0.00205033
-0.00220488
-0.0023943
-0.00259575
-0.0027665
-0.00291624
-0.00309492
-0.00329005
-0.00347651
-0.00367013
-0.0038653
-0.00404279
-0.00422062
-0.00440703
-0.00457602
-0.00472104
-0.00487119
-0.00503412
-0.00519639
-0.00536565
-0.00555004
-0.00573805
-0.00591726
-0.00609692
-0.00629047
-0.00648606
-0.00668006
-0.00688993
-0.00710882
-0.00733345
-0.00756144
-0.00779019
-0.00803174
-0.0082827
-0.00853692
-0.00880136
-0.00906839
-0.00932395
-0.00956968
-0.0098134
-0.0100684
-0.0103245
-0.0105713
-0.0108215
-0.0110932
-0.0113923
-0.0116851
-0.011942
-0.0121863
-0.0124576
-0.0127274
-0.0129853
-0.0132612
-0.0135609
-0.0138568
-0.0141458
-0.0144411
-0.0147367
-0.0150318
-0.0153257
-0.0156245
-0.0159236
-0.0162278
-0.0165334
-0.0168451
-0.0171605
-0.0174809
-0.0178079
-0.018138
-0.0184757
-0.0188147
-0.0191629
-0.0195183
-0.0198765
-0.0202489
-0.0206148
-0.0209999
-0.0213854
-0.0217777
-0.0221981
-0.0225756
-0.0229779
0.0241241
0.0182548
0.00895842
0.00194909
-0.000881202
-0.000747587
-8.55573e-06
0.000267514
0.000110491
-0.000166055
-0.000385627
-0.00058505
-0.000837863
-0.00106312
-0.00122808
-0.0014518
-0.00171819
-0.00191011
-0.00204713
-0.00220202
-0.00239173
-0.00259346
-0.00276442
-0.00291429
-0.00309315
-0.00328847
-0.00347505
-0.00366879
-0.0038641
-0.00404168
-0.00421957
-0.00440608
-0.00457515
-0.0047202
-0.00487039
-0.00503337
-0.00519567
-0.00536496
-0.00554938
-0.00573743
-0.00591666
-0.00609633
-0.0062899
-0.00648552
-0.00667953
-0.00688942
-0.00710833
-0.00733297
-0.007561
-0.00778975
-0.00803133
-0.00828231
-0.00853654
-0.008801
-0.00906806
-0.00932364
-0.00956938
-0.00981311
-0.0100681
-0.0103243
-0.0105711
-0.0108213
-0.011093
-0.0113921
-0.0116849
-0.0119419
-0.0121862
-0.0124575
-0.0127273
-0.0129852
-0.0132611
-0.0135608
-0.0138567
-0.0141457
-0.0144411
-0.0147367
-0.0150318
-0.0153257
-0.0156244
-0.0159236
-0.0162278
-0.0165334
-0.0168451
-0.0171604
-0.0174809
-0.0178079
-0.018138
-0.0184757
-0.0188146
-0.0191629
-0.0195183
-0.0198765
-0.0202489
-0.0206148
-0.0209999
-0.0213854
-0.0217777
-0.0221981
-0.0225756
-0.0229779
0.0230917
0.0180988
0.00918994
0.00227963
-0.000664056
-0.000664777
2.73459e-05
0.000295892
0.000135893
-0.000145121
-0.000369469
-0.000572451
-0.00082748
-0.0010545
-0.00122097
-0.00144568
-0.00171265
-0.00190516
-0.00204296
-0.00219851
-0.00238858
-0.00259054
-0.00276176
-0.00291187
-0.00309098
-0.00328652
-0.00347324
-0.00366716
-0.00386268
-0.00404039
-0.00421838
-0.00440499
-0.00457415
-0.00471925
-0.00486949
-0.00503256
-0.00519492
-0.00536424
-0.00554872
-0.0057368
-0.00591604
-0.00609572
-0.00628932
-0.00648496
-0.00667897
-0.00688889
-0.00710783
-0.00733248
-0.00756052
-0.00778929
-0.00803089
-0.0082819
-0.00853614
-0.00880062
-0.00906772
-0.00932331
-0.00956907
-0.00981281
-0.0100678
-0.010324
-0.0105708
-0.0108211
-0.0110928
-0.0113919
-0.0116848
-0.0119417
-0.012186
-0.0124573
-0.0127272
-0.0129851
-0.013261
-0.0135607
-0.0138566
-0.0141456
-0.014441
-0.0147366
-0.0150317
-0.0153256
-0.0156244
-0.0159236
-0.0162278
-0.0165333
-0.0168451
-0.0171604
-0.0174808
-0.0178079
-0.018138
-0.0184757
-0.0188146
-0.0191628
-0.0195182
-0.0198765
-0.0202489
-0.0206148
-0.0209999
-0.0213854
-0.0217777
-0.0221982
-0.0225757
-0.022978
0.0220658
0.017875
0.00941236
0.00261998
-0.000431529
-0.000573849
6.61899e-05
0.000328809
0.000168036
-0.000117256
-0.000347708
-0.000555484
-0.000813053
-0.00104233
-0.00121131
-0.00143736
-0.00170462
-0.00189786
-0.00203709
-0.00219383
-0.00238435
-0.0025865
-0.00275807
-0.00290862
-0.00308806
-0.00328379
-0.00347068
-0.00366487
-0.00386071
-0.00403868
-0.00421684
-0.00440357
-0.00457283
-0.00471802
-0.00486837
-0.00503155
-0.00519402
-0.00536344
-0.00554798
-0.00573611
-0.00591538
-0.00609507
-0.00628869
-0.00648435
-0.00667837
-0.00688832
-0.00710728
-0.00733193
-0.00755998
-0.00778877
-0.0080304
-0.00828144
-0.0085357
-0.00880018
-0.0090673
-0.00932293
-0.00956872
-0.00981247
-0.0100675
-0.0103237
-0.0105705
-0.0108208
-0.0110925
-0.0113916
-0.0116845
-0.0119415
-0.0121858
-0.0124572
-0.012727
-0.0129849
-0.0132609
-0.0135606
-0.0138565
-0.0141455
-0.0144409
-0.0147366
-0.0150316
-0.0153256
-0.0156243
-0.0159235
-0.0162277
-0.0165333
-0.016845
-0.0171604
-0.0174808
-0.0178078
-0.0181379
-0.0184757
-0.0188146
-0.0191628
-0.0195182
-0.0198765
-0.0202488
-0.0206148
-0.0209998
-0.0213854
-0.0217777
-0.0221982
-0.0225757
-0.0229781
0.0210493
0.0175902
0.00962399
0.00296338
-0.000190993
-0.000478917
0.000104125
0.000361987
0.000203048
-8.55327e-05
-0.000322415
-0.000535408
-0.000795373
-0.00102705
-0.00119923
-0.00142677
-0.00169393
-0.00188794
-0.00202924
-0.00218775
-0.00237883
-0.00258108
-0.00275315
-0.00290442
-0.00308427
-0.00328013
-0.00346716
-0.00366161
-0.00385788
-0.00403629
-0.00421474
-0.00440161
-0.00457104
-0.00471642
-0.00486691
-0.00503023
-0.00519289
-0.00536249
-0.00554714
-0.00573532
-0.00591465
-0.00609437
-0.006288
-0.00648368
-0.00667773
-0.00688772
-0.00710667
-0.00733129
-0.00755933
-0.00778814
-0.00802982
-0.00828091
-0.00853518
-0.00879967
-0.00906679
-0.00932244
-0.00956828
-0.00981206
-0.0100671
-0.0103233
-0.0105701
-0.0108204
-0.0110921
-0.0113913
-0.0116842
-0.0119412
-0.0121856
-0.0124569
-0.0127268
-0.0129847
-0.0132607
-0.0135604
-0.0138564
-0.0141454
-0.0144408
-0.0147365
-0.0150316
-0.0153255
-0.0156243
-0.0159234
-0.0162277
-0.0165333
-0.016845
-0.0171604
-0.0174808
-0.0178078
-0.0181379
-0.0184757
-0.0188146
-0.0191628
-0.0195182
-0.0198765
-0.0202488
-0.0206148
-0.0209998
-0.0213854
-0.0217777
-0.0221982
-0.0225758
-0.0229783
0.020056
0.0172571
0.00982525
0.00330886
5.68474e-05
-0.000379905
0.000140795
0.000394307
0.000239448
-5.1612e-05
-0.000295138
-0.000513598
-0.000775857
-0.00100992
-0.00118556
-0.00141453
-0.0016812
-0.00187594
-0.00201969
-0.00218034
-0.00237206
-0.0025743
-0.00274702
-0.00289931
-0.00307967
-0.00327561
-0.00346271
-0.00365735
-0.00385404
-0.00403304
-0.00421189
-0.00439895
-0.00456863
-0.00471435
-0.00486505
-0.00502853
-0.00519145
-0.00536131
-0.00554609
-0.00573437
-0.00591381
-0.00609362
-0.00628726
-0.00648294
-0.00667705
-0.00688709
-0.00710602
-0.00733057
-0.00755857
-0.00778737
-0.00802911
-0.00828027
-0.00853457
-0.00879903
-0.00906614
-0.00932183
-0.00956776
-0.00981156
-0.0100665
-0.0103227
-0.0105695
-0.0108199
-0.0110917
-0.0113909
-0.0116838
-0.0119409
-0.0121852
-0.0124566
-0.0127265
-0.0129844
-0.0132604
-0.0135602
-0.0138562
-0.0141452
-0.0144407
-0.0147363
-0.0150314
-0.0153254
-0.0156242
-0.0159234
-0.0162276
-0.0165332
-0.0168449
-0.0171603
-0.0174807
-0.0178078
-0.0181379
-0.0184756
-0.0188146
-0.0191628
-0.0195182
-0.0198765
-0.0202488
-0.0206148
-0.0209998
-0.0213854
-0.0217777
-0.0221981
-0.0225759
-0.0229785
0.0190976
0.0168804
0.0100099
0.00365346
0.000311953
-0.000275415
0.000176998
0.000425604
0.000276907
-1.5793e-05
-0.000266246
-0.000490608
-0.000755312
-0.00099177
-0.00117095
-0.00140131
-0.00166727
-0.00186264
-0.00200896
-0.00217193
-0.00236429
-0.00256647
-0.00273992
-0.00289344
-0.00307443
-0.00327045
-0.00345757
-0.00365228
-0.00384932
-0.00402894
-0.00420821
-0.00439545
-0.00456551
-0.00471175
-0.00486276
-0.00502643
-0.00518967
-0.00535986
-0.00554479
-0.00573317
-0.00591281
-0.00609277
-0.00628643
-0.00648213
-0.00667633
-0.00688645
-0.00710534
-0.00732977
-0.00755768
-0.00778647
-0.00802825
-0.00827948
-0.00853381
-0.00879823
-0.00906529
-0.00932104
-0.00956712
-0.00981098
-0.0100658
-0.0103219
-0.0105688
-0.0108192
-0.0110911
-0.0113903
-0.0116832
-0.0119403
-0.0121848
-0.0124561
-0.012726
-0.012984
-0.01326
-0.0135599
-0.0138558
-0.0141449
-0.0144404
-0.0147361
-0.0150312
-0.0153252
-0.015624
-0.0159232
-0.0162275
-0.0165331
-0.0168448
-0.0171602
-0.0174807
-0.0178077
-0.0181378
-0.0184756
-0.0188145
-0.0191627
-0.0195182
-0.0198764
-0.0202488
-0.0206148
-0.0209998
-0.0213854
-0.0217776
-0.0221981
-0.0225759
-0.0229788
0.018182
0.0164609
0.0101698
0.00399487
0.000575686
-0.000163177
0.000213767
0.000455575
0.000315017
2.18684e-05
-0.000235753
-0.000466605
-0.000734044
-0.000972922
-0.00115571
-0.00138754
-0.00165272
-0.00184859
-0.00199748
-0.00216282
-0.00235586
-0.00255791
-0.00273212
-0.00288701
-0.0030687
-0.00326485
-0.00345201
-0.0036467
-0.00384398
-0.00402418
-0.0042038
-0.00439115
-0.00456167
-0.00470862
-0.00486006
-0.00502398
-0.00518759
-0.00535814
-0.0055432
-0.00573167
-0.00591158
-0.00609177
-0.00628548
-0.00648123
-0.00667557
-0.0068858
-0.00710465
-0.00732893
-0.00755671
-0.00778545
-0.00802725
-0.00827853
-0.00853286
-0.0087972
-0.00906417
-0.00932001
-0.00956632
-0.0098103
-0.010065
-0.0103209
-0.0105678
-0.0108184
-0.0110904
-0.0113895
-0.0116824
-0.0119396
-0.0121842
-0.0124555
-0.0127253
-0.0129833
-0.0132595
-0.0135594
-0.0138554
-0.0141445
-0.0144401
-0.0147358
-0.0150309
-0.0153249
-0.0156238
-0.015923
-0.0162273
-0.0165329
-0.0168447
-0.0171601
-0.0174805
-0.0178076
-0.0181377
-0.0184755
-0.0188145
-0.0191627
-0.0195181
-0.0198764
-0.0202488
-0.0206147
-0.0209997
-0.0213853
-0.0217776
-0.0221981
-0.022576
-0.0229792
0.0173138
0.0160013
0.0102988
0.00433205
0.000849707
-4.11763e-05
0.000251773
0.000483532
0.000353052
6.12148e-05
-0.000203588
-0.000441546
-0.000712068
-0.00095345
-0.00113997
-0.00137343
-0.00163783
-0.00183408
-0.00198547
-0.00215323
-0.00234696
-0.00254887
-0.00272384
-0.00288014
-0.00306261
-0.00325893
-0.00344617
-0.00364083
-0.00383828
-0.00401897
-0.00419885
-0.00438623
-0.00455721
-0.00470499
-0.004857
-0.00502124
-0.0051853
-0.00535623
-0.00554136
-0.00572989
-0.00591009
-0.00609057
-0.00628437
-0.00648022
-0.00667477
-0.00688513
-0.00710393
-0.00732805
-0.0075557
-0.00778438
-0.00802617
-0.00827745
-0.00853174
-0.00879591
-0.00906272
-0.00931868
-0.00956533
-0.0098095
-0.0100641
-0.0103197
-0.0105665
-0.0108174
-0.0110894
-0.0113884
-0.0116813
-0.0119388
-0.0121834
-0.0124547
-0.0127245
-0.0129826
-0.0132588
-0.0135587
-0.0138547
-0.0141439
-0.0144395
-0.0147353
-0.0150305
-0.0153246
-0.0156235
-0.0159227
-0.016227
-0.0165327
-0.0168445
-0.0171599
-0.0174804
-0.0178075
-0.0181376
-0.0184754
-0.0188144
-0.0191626
-0.019518
-0.0198763
-0.0202487
-0.0206147
-0.0209997
-0.0213853
-0.0217776