/*--------------------------------*- C++ -*----------------------------------*\
| =========                 |                                                 |
| \\      /  F ield         | OpenFOAM: The Open Source CFD Toolbox           |
|  \\    /   O peration     | Version:  2106                                  |
|   \\  /    A nd           | Website:  www.openfoam.com                      |
|    \\/     M anipulation  |                                                 |
\*---------------------------------------------------------------------------*/
FoamFile
{
    version     2.0;
    format      ascii;
    arch        "LSB;label=32;scalar=64";
    class       volScalarField;
    location    "0.48";
    object      p;
}
// * * * * * * * * * * * * * * * * * * * * * * * * * * * * * * * * * * * * * //

dimensions      [0 2 -2 0 0 0 0];

internalField   nonuniform List<scalar> 
9600
(
6.33861e-10
0.00481334
0.00376289
0.00442309
0.00488895
0.00448722
0.00450604
0.00491893
0.00448276
0.00570164
0.00683862
0.00739866
0.00791157
0.00822609
0.0101647
0.0103526
0.0123444
0.013513
0.0166658
0.0210501
-2.07717e-07
0.00481477
0.00376524
0.00442169
0.00490022
0.00448534
0.00451382
0.00491774
0.00448517
0.00570378
0.00682343
0.00739246
0.00791272
0.00821906
0.0101685
0.0103267
0.0123643
0.0134457
0.0167375
0.0205819
2.04925e-07
0.0048184
0.00376869
0.00441871
0.00491659
0.00448543
0.00452124
0.00491407
0.00449243
0.0057022
0.0068077
0.00738494
0.00791238
0.0082102
0.0101635
0.010297
0.0123744
0.0133719
0.0167587
0.0199705
2.58338e-06
0.00482341
0.00377272
0.00441578
0.00492656
0.00448711
0.00452646
0.0049087
0.00450515
0.00569816
0.0067935
0.0073754
0.00790991
0.0081998
0.0101546
0.0102671
0.0123772
0.0133041
0.016705
0.0194603
8.04362e-06
0.0048285
0.0037773
0.00441289
0.00493382
0.00448958
0.00452994
0.00490208
0.00452365
0.00569307
0.00677961
0.00736314
0.00790683
0.00818825
0.0101459
0.0102363
0.01238
0.0132303
0.0166196
0.0190183
1.72641e-05
0.00483255
0.00378194
0.00440951
0.00493848
0.00449216
0.00453189
0.0048948
0.00454737
0.00568795
0.00676562
0.00734937
0.00790371
0.00817615
0.0101362
0.0102061
0.0123769
0.0131542
0.0165064
0.0186063
3.03979e-05
0.00483487
0.00378608
0.0044055
0.00494101
0.00449423
0.0045327
0.00488732
0.00457512
0.00568382
0.00675205
0.00733499
0.00790037
0.00816325
0.0101247
0.0101762
0.0123641
0.0130798
0.0163586
0.0182143
4.71447e-05
0.00483529
0.0037894
0.004401
0.00494217
0.00449547
0.00453303
0.0048797
0.00460578
0.00568127
0.0067391
0.00732025
0.00789636
0.00814933
0.0101109
0.010146
0.0123402
0.0130073
0.0161736
0.0178401
6.6974e-05
0.00483404
0.00379182
0.00439618
0.00494274
0.0044959
0.00453346
0.00487186
0.00463847
0.00568026
0.00672669
0.00730525
0.00789138
0.00813439
0.0100938
0.0101158
0.0123039
0.0129363
0.0159535
0.0174814
8.93433e-05
0.00483148
0.00379345
0.00439113
0.00494326
0.0044956
0.0045344
0.00486368
0.00467252
0.00568051
0.0067147
0.00729004
0.00788526
0.00811857
0.0100727
0.0100861
0.0122535
0.0128663
0.015701
0.0171288
0.00011382
0.00482793
0.0037945
0.0043859
0.00494405
0.00449461
0.00453602
0.00485507
0.00470749
0.00568177
0.00670308
0.00727473
0.00787781
0.00810221
0.0100467
0.0100577
0.0121877
0.0127965
0.015419
0.0167768
0.000140113
0.0048236
0.00379517
0.00438041
0.00494529
0.0044929
0.00453839
0.00484596
0.00474314
0.0056839
0.00669173
0.00725941
0.00786879
0.00808576
0.0100149
0.0100306
0.0121054
0.0127254
0.0151113
0.0164202
0.000168042
0.00481861
0.00379567
0.0043746
0.00494707
0.00449035
0.0045415
0.00483631
0.00477924
0.00568683
0.00668053
0.00724415
0.00785787
0.00806968
0.00997629
0.0100051
0.0120066
0.0126505
0.0147839
0.0160543
0.000197497
0.00481299
0.00379622
0.00436837
0.00494947
0.00448687
0.00454533
0.00482611
0.00481561
0.00569055
0.00666927
0.00722906
0.00784454
0.00805441
0.00993041
0.00998067
0.011892
0.0125681
0.0144427
0.0156763
0.000228412
0.00480676
0.00379699
0.00436161
0.00495258
0.00448236
0.00454982
0.00481536
0.004852
0.00569505
0.00665761
0.0072143
0.00782825
0.00804017
0.00987697
0.00995644
0.011763
0.0124761
0.0140931
0.0152851
0.000260758
0.00479985
0.00379818
0.00435423
0.00495649
0.00447674
0.00455495
0.00480414
0.00488816
0.00570041
0.00664513
0.00720012
0.0078085
0.00802683
0.00981603
0.00993091
0.0116209
0.0123658
0.0137401
0.0148814
0.000294542
0.00479217
0.00379993
0.0043461
0.00496134
0.00446995
0.00456064
0.00479256
0.00492376
0.00570677
0.00663137
0.00718676
0.00778496
0.008014
0.00974791
0.00990238
0.0114676
0.0122378
0.013387
0.0144668
0.000329816
0.00478357
0.00380239
0.00433712
0.00496725
0.00446194
0.00456679
0.00478078
0.00495843
0.0057144
0.0066158
0.00717441
0.00775752
0.00800101
0.00967337
0.00986965
0.0113046
0.0120913
0.0130361
0.0140432
0.000366666
0.00477386
0.0038057
0.00432716
0.00497435
0.00445268
0.00457325
0.00476902
0.00499175
0.00572364
0.00659789
0.00716312
0.00772628
0.0079868
0.00959372
0.00982574
0.011133
0.0119272
0.0126878
0.0136122
0.00040521
0.00476281
0.00380999
0.0043161
0.00498273
0.00444216
0.00457985
0.00475755
0.00502321
0.00573495
0.00657729
0.00715269
0.0076916
0.0079699
0.00951018
0.00977069
0.010953
0.0117471
0.0123426
0.0131754
0.000445587
0.00475014
0.00381537
0.0043038
0.00499252
0.00443041
0.00458632
0.00474679
0.00505222
0.00574881
0.00655379
0.00714274
0.00765421
0.00794847
0.00942342
0.00970436
0.0107641
0.0115525
0.012002
0.0127343
0.00048796
0.00473556
0.00382198
0.00429015
0.00500378
0.0044175
0.0045923
0.00473725
0.00507816
0.00576556
0.00652724
0.00713252
0.0076152
0.00792055
0.00933358
0.00962711
0.0105653
0.0113445
0.011668
0.0122904
0.000532512
0.00471874
0.00382991
0.00427507
0.00501654
0.00440359
0.00459731
0.0047295
0.00510044
0.00578529
0.00649791
0.00712097
0.00757571
0.00788443
0.00924022
0.00954013
0.0103556
0.0111232
0.011343
0.0118459
0.000579435
0.00469932
0.00383925
0.00425846
0.0050308
0.00438893
0.00460081
0.00472423
0.00511847
0.00580786
0.00646647
0.00710665
0.00753691
0.0078391
0.0091419
0.00944529
0.0101349
0.0108872
0.0110291
0.0114043
0.000628933
0.00467693
0.00385008
0.00424028
0.0050465
0.00437389
0.00460214
0.00472218
0.00513176
0.00583287
0.00643387
0.00708768
0.00749976
0.00778453
0.00903634
0.00934402
0.00990447
0.010635
0.0107273
0.0109701
0.000681222
0.0046512
0.00386243
0.00422055
0.00506346
0.00435896
0.00460057
0.00472391
0.0051402
0.00585945
0.00640138
0.00706237
0.00746437
0.00772133
0.00892124
0.00923678
0.00966708
0.0103657
0.0104362
0.0105491
0.000736531
0.00462173
0.00387629
0.0041994
0.0050814
0.00434477
0.00459531
0.00472981
0.00514392
0.00588651
0.00637055
0.00702932
0.00742994
0.00765066
0.00879464
0.00912363
0.0094263
0.0100785
0.0101524
0.0101466
0.000795093
0.00458818
0.00389156
0.00417691
0.00509992
0.00433223
0.00458553
0.00473998
0.00514329
0.00591276
0.00634308
0.00698748
0.007395
0.00757425
0.0086549
0.00900383
0.00918607
0.00977453
0.00987068
0.00976685
0.000857137
0.00455023
0.00390807
0.0041533
0.00511848
0.00432244
0.00457061
0.00475404
0.00513921
0.00593653
0.00632029
0.00693647
0.00735755
0.00749422
0.00850117
0.00887535
0.00895026
0.00945638
0.0095852
0.00941181
0.000922875
0.00450765
0.00392549
0.00412895
0.0051364
0.00431641
0.00455019
0.00477135
0.00513281
0.0059559
0.0063025
0.00687659
0.00731503
0.00741244
0.00833389
0.0087355
0.00872175
0.00912841
0.0092903
0.00908115
0.000992502
0.00446029
0.00394341
0.00410433
0.00515285
0.00431511
0.00452413
0.004791
0.00512542
0.00596925
0.0062899
0.00680871
0.00726449
0.00733031
0.00815493
0.00858138
0.00850159
0.00879657
0.008982
0.0087709
0.00106621
0.00440811
0.00396121
0.00408001
0.00516699
0.00431935
0.00449265
0.00481159
0.00511852
0.00597509
0.00628244
0.00673418
0.00720304
0.00724831
0.00796705
0.00841098
0.00828912
0.00846716
0.00865892
0.00847406
0.00114414
0.00435132
0.00397805
0.00405661
0.00517803
0.00432972
0.0044564
0.00483135
0.00511355
0.00597236
0.00627841
0.00665489
0.00712857
0.00716594
0.00777399
0.00822341
0.00808169
0.00814601
0.00832276
0.00818186
0.00122637
0.00429025
0.00399289
0.0040347
0.00518539
0.00434643
0.00441643
0.00484842
0.00511145
0.00596042
0.00627499
0.00657286
0.00703994
0.00708191
0.00757978
0.0080187
0.0078748
0.00783813
0.00797848
0.00788582
0.0013129
0.00422535
0.00400431
0.0040149
0.00518867
0.00436934
0.00437415
0.00486107
0.00511251
0.00593978
0.00626979
0.00648989
0.00693708
0.00699421
0.00738751
0.0077981
0.00766357
0.0075459
0.00763372
0.00758048
0.00140367
0.00415728
0.00401159
0.00399762
0.00518752
0.00439799
0.00433123
0.00486778
0.00511658
0.00591119
0.00626076
0.00640718
0.00682033
0.00690088
0.00719977
0.00756459
0.00744374
0.0072676
0.00729631
0.00726574
0.00149847
0.00408707
0.0040136
0.00398294
0.00518202
0.0044314
0.00428933
0.00486768
0.00512296
0.00587538
0.00624589
0.00632555
0.00669071
0.00679939
0.00701871
0.00732277
0.00721283
0.00699841
0.0069714
0.00694769
0.00159696
0.00401591
0.0040093
0.00397063
0.00517255
0.00446833
0.0042498
0.00486053
0.00513017
0.00583322
0.00622388
0.00624579
0.00654948
0.00668653
0.00684578
0.00707805
0.00696987
0.00673264
0.00665959
0.00663411
0.00169868
0.0039451
0.00399791
0.00396012
0.00515964
0.0045074
0.00421339
0.00484661
0.00513673
0.00578506
0.00619431
0.00616871
0.00639783
0.00655936
0.00668063
0.00683631
0.00671622
0.00646603
0.00635861
0.0063286
0.00180294
0.00387612
0.003979
0.00395061
0.00514404
0.00454725
0.00418035
0.0048265
0.00514182
0.00573039
0.00615604
0.00609576
0.00623862
0.00641474
0.00651998
0.00660353
0.00645606
0.00619585
0.00606509
0.00603088
0.00190879
0.00381054
0.00395268
0.00394077
0.00512653
0.00458687
0.0041503
0.00480092
0.00514496
0.00566877
0.00610725
0.00602878
0.00607684
0.00624966
0.00635812
0.00638437
0.00619628
0.00592054
0.00577535
0.00573925
0.00201507
0.00374996
0.00391972
0.0039287
0.00510771
0.00462599
0.00412203
0.00477013
0.00514674
0.00559991
0.00604484
0.00596806
0.00591901
0.00606417
0.00618734
0.00617891
0.00594591
0.00564201
0.00548522
0.00545204
0.00212051
0.00369582
0.00388124
0.00391256
0.0050878
0.00466457
0.00409394
0.00473336
0.00514878
0.00552507
0.00596464
0.00591141
0.00577256
0.00586271
0.00600017
0.00598193
0.00571195
0.0053676
0.00519247
0.00516708
0.00222388
0.00364912
0.00383902
0.00389045
0.00506626
0.00470343
0.00406499
0.00468847
0.00515258
0.00544826
0.00586293
0.00585259
0.00564387
0.0056536
0.0057917
0.00578493
0.00549606
0.00510823
0.00490062
0.00488115
0.00232396
0.00361089
0.00379532
0.0038606
0.00504176
0.00474441
0.0040354
0.00463141
0.00515795
0.00537593
0.00573902
0.00578202
0.00553484
0.0054488
0.00556221
0.00557835
0.00529496
0.00487118
0.00461778
0.0045944
0.00241969
0.00358341
0.00375253
0.00382233
0.00501194
0.00478938
0.00400637
0.00455783
0.00516263
0.00531551
0.00559456
0.0056892
0.00544243
0.00526106
0.00531783
0.0053531
0.00510026
0.00465889
0.00435426
0.00431154
0.00251018
0.00356286
0.00371315
0.00377549
0.00497383
0.00483871
0.0039805
0.0044651
0.00516042
0.00527277
0.00543755
0.00556615
0.00535749
0.00509843
0.00507089
0.00510606
0.00489973
0.00446957
0.00411956
0.00403904
0.00259468
0.00354725
0.00367948
0.00372071
0.00492409
0.00489157
0.00396301
0.00435199
0.00514178
0.00525123
0.00528185
0.00541047
0.00526569
0.0049626
0.00483675
0.00484185
0.00468162
0.0042927
0.00391822
0.00378742
0.00267265
0.00353753
0.00365349
0.0036599
0.0048592
0.00494563
0.00396007
0.00421873
0.00509793
0.00525083
0.00514337
0.00522508
0.00515189
0.00484932
0.00462866
0.00457079
0.00444115
0.00411238
0.00374634
0.00356994
0.00274392
0.00353213
0.00363646
0.00359605
0.00477646
0.00499601
0.00397653
0.00407079
0.00501492
0.00526307
0.00503568
0.00502061
0.00500634
0.00474653
0.00445367
0.00430943
0.00418198
0.00391506
0.00359202
0.00339411
0.00280867
0.00352898
0.00362895
0.0035324
0.00467429
0.0050367
0.00401586
0.00391827
0.00488664
0.00527189
0.00496612
0.00481399
0.00482561
0.00463865
0.00431131
0.00407449
0.00391431
0.00369478
0.00343617
0.00325343
0.00286721
0.00352665
0.00363055
0.00347286
0.00455261
0.00506086
0.00407797
0.00377398
0.00471292
0.00525634
0.00493452
0.00462531
0.00461249
0.00451089
0.0041958
0.00387559
0.00365432
0.00345656
0.0032623
0.00313161
0.00292011
0.00352351
0.0036396
0.00342127
0.0044135
0.00506144
0.0041595
0.00365067
0.00449708
0.00519987
0.00493196
0.00447164
0.00437766
0.00435029
0.00409519
0.00371739
0.00341715
0.00321096
0.00306553
0.00300671
0.0029682
0.00351819
0.00365349
0.00338079
0.00426048
0.00503289
0.00425379
0.00355844
0.0042515
0.00509067
0.0049406
0.00436166
0.00414029
0.00415192
0.0039908
0.00360092
0.00321556
0.00297029
0.00285208
0.00286117
0.00301226
0.00350963
0.00366905
0.00335441
0.00410143
0.00497068
0.00434788
0.00350433
0.00399528
0.00492292
0.00493855
0.00429681
0.00392198
0.00392244
0.00386192
0.00351784
0.0030645
0.00274855
0.00262989
0.00268805
0.00305305
0.00349725
0.00368268
0.00334376
0.00394304
0.00487128
0.0044267
0.0034914
0.00375359
0.00469877
0.00490344
0.00427251
0.00374021
0.00367366
0.00369661
0.00344667
0.00297039
0.00256574
0.00240761
0.00248944
0.00309113
0.00348118
0.00369067
0.00334812
0.00379223
0.00473478
0.00448171
0.00351884
0.00353971
0.00442698
0.00481602
0.00427316
0.00360854
0.00342348
0.0034933
0.0033619
0.00292333
0.00244405
0.00220269
0.00227038
0.00312668
0.00346201
0.00369036
0.00336582
0.00365628
0.00456575
0.00450391
0.00357905
0.00336435
0.00412803
0.00466723
0.00427244
0.00353007
0.0031975
0.00325987
0.00324552
0.00289876
0.00238765
0.00204186
0.00204176
0.00315967
0.00344065
0.00368026
0.00339257
0.00353938
0.00437379
0.00448641
0.00364664
0.00323544
0.00382623
0.00445899
0.00424607
0.00349766
0.00301868
0.00301265
0.00308651
0.00286664
0.00238396
0.00194777
0.00183097
0.00318978
0.00341832
0.00365967
0.00342487
0.00344416
0.00417056
0.00442513
0.00371059
0.00315996
0.00354354
0.00419993
0.0041766
0.00349442
0.00289573
0.00277704
0.00288869
0.00280106
0.00240299
0.00192055
0.00167221
0.00321642
0.003396
0.00362844
0.0034477
0.00337131
0.00396706
0.0043201
0.00375765
0.00312345
0.00329705
0.0039084
0.00405154
0.003496
0.00282773
0.0025767
0.00266565
0.00268586
0.00240797
0.00194338
0.00158841
0.00323889
0.00337439
0.00358762
0.00346209
0.00332021
0.00377399
0.0041766
0.0037752
0.00311777
0.00309646
0.00360848
0.00387208
0.00347582
0.00280432
0.00242775
0.0024395
0.00252217
0.00237137
0.00197872
0.00157484
0.00325642
0.00335392
0.00353929
0.00346461
0.00328758
0.00359928
0.00400407
0.00375527
0.00312858
0.00294451
0.00332148
0.00364744
0.00341626
0.00280228
0.00233311
0.00223736
0.00232185
0.00228051
0.00199496
0.00160648
0.00326818
0.00333454
0.00348623
0.00345328
0.00326697
0.00344681
0.00381438
0.00369561
0.00313966
0.00283914
0.00306412
0.00339219
0.00330874
0.00279731
0.0022837
0.00207994
0.00211224
0.00213838
0.0019707
0.00164726
0.00327369
0.00331574
0.00343126
0.00342753
0.00324954
0.00331868
0.00362021
0.00359803
0.00313707
0.00277026
0.00284791
0.003127
0.00315282
0.0027703
0.00226334
0.00197133
0.00192576
0.00196183
0.0018952
0.00166622
0.00327277
0.00329676
0.00337645
0.00338805
0.00322994
0.00321419
0.00343325
0.00346873
0.00311085
0.00272325
0.00267458
0.00287479
0.0029593
0.00270478
0.00225214
0.00190574
0.00178082
0.0017842
0.00177518
0.00164264
0.00326547
0.00327668
0.00332334
0.00333705
0.00320389
0.00313
0.00326184
0.00331802
0.00305595
0.00268449
0.00254073
0.00264956
0.00274734
0.00259775
0.00222902
0.00187248
0.00168169
0.0016327
0.00163258
0.00157316
0.00325209
0.00325435
0.00327275
0.0032779
0.00316819
0.00306023
0.00311089
0.00315818
0.00297275
0.00264202
0.00243915
0.0024568
0.00253572
0.00245911
0.00217859
0.00185163
0.00162339
0.00152024
0.00149657
0.00146991
0.00323324
0.003229
0.00322472
0.00321437
0.00312184
0.00299853
0.00298118
0.00300038
0.00286641
0.00258601
0.00235876
0.00229912
0.0023362
0.00230179
0.0020999
0.00182224
0.00159261
0.00144824
0.00138636
0.00135753
0.00320972
0.00320016
0.00317874
0.00314996
0.00306579
0.00293922
0.00287144
0.0028523
0.0027454
0.00251331
0.00228607
0.00217348
0.00215928
0.00213804
0.00200019
0.00177436
0.00156765
0.00140897
0.00131058
0.00125839
0.00318243
0.00316784
0.00313385
0.00308714
0.0030028
0.00287816
0.00277785
0.0027191
0.00261869
0.00242595
0.00221236
0.00207138
0.00201136
0.00197934
0.00188685
0.0017101
0.00153308
0.00138502
0.00126575
0.00118461
0.00315227
0.0031325
0.00308906
0.0030272
0.00293672
0.00281393
0.0026947
0.00260243
0.00249516
0.00232827
0.00213382
0.00198236
0.00189064
0.00183647
0.00176789
0.00163463
0.00148502
0.00135791
0.00123917
0.00113622
0.00312003
0.00309511
0.00304394
0.0029704
0.00287112
0.00274734
0.00261752
0.00250094
0.00238122
0.0022271
0.00205025
0.00189911
0.00179172
0.00171594
0.0016522
0.001553
0.00142776
0.00131857
0.0012125
0.00110287
0.00308654
0.00305682
0.00299874
0.00291653
0.00280854
0.00268057
0.00254441
0.002412
0.00227923
0.00212914
0.00196501
0.00181789
0.00170646
0.00161778
0.00154822
0.00147047
0.00136701
0.00126963
0.00117562
0.00106907
0.00305266
0.00301881
0.00295428
0.00286533
0.00275031
0.00261643
0.00247505
0.00233294
0.00218957
0.00203876
0.00188241
0.00173907
0.0016273
0.00153642
0.00145996
0.00139164
0.00130745
0.00121865
0.00113193
0.00103007
0.00301938
0.00298216
0.00291192
0.00281713
0.00269689
0.00255733
0.00241053
0.00226204
0.00211185
0.00195856
0.00180653
0.00166644
0.00155317
0.00146262
0.00138416
0.00131829
0.00124868
0.00116954
0.0010878
0.000990928
0.00298791
0.00294798
0.00287299
0.00277294
0.0026488
0.00250469
0.0023526
0.00219901
0.00204471
0.00188969
0.00173999
0.00160334
0.00148914
0.00139755
0.00131736
0.00124759
0.00118399
0.00111554
0.00104235
0.000954003
0.00295957
0.00291755
0.00283879
0.00273408
0.00260694
0.00245973
0.00230301
0.00214476
0.00198772
0.00183214
0.00168348
0.00154953
0.00143781
0.00134976
0.00127435
0.00120268
0.00113266
0.00105707
0.000973591
0.000878558
0.0029356
0.0028921
0.00281077
0.00270223
0.00257282
0.00242401
0.00226388
0.00210172
0.00194273
0.00178739
0.00163928
0.00150507
0.00139106
0.00129968
0.00122559
0.00115873
0.00109456
0.00102737
0.000950683
0.000858319
0.00291603
0.00286977
0.00278603
0.00267411
0.00254173
0.00239122
0.00222865
0.00206322
0.00190237
0.00174764
0.001601
0.00146761
0.00135395
0.00126225
0.00118805
0.00112134
0.00105528
0.000985282
0.00090595
0.000811169
0.0274822
0.0194995
0.00958937
0.00266852
7.59748e-05
0.000326732
0.00111447
0.00130135
0.000978153
0.00054974
0.000139943
-0.000214325
-0.000483068
-0.00076613
-0.00110171
-0.0013985
-0.00164093
-0.00187611
-0.00211241
-0.00236066
-0.00263758
-0.00292115
-0.00319052
-0.00345627
-0.00373061
-0.00402107
-0.0043313
-0.00464342
-0.00493232
-0.0052091
-0.00550481
-0.00580347
-0.00607139
-0.00633078
-0.00662778
-0.00693219
-0.00719276
-0.00745506
-0.00776457
-0.00808185
-0.00839073
-0.00870232
-0.00900162
-0.00929473
-0.00960603
-0.00993527
-0.0102559
-0.0105595
-0.0108813
-0.0112333
-0.0115611
-0.0118607
-0.0121854
-0.0125296
-0.0128516
-0.0131677
-0.0135032
-0.013844
-0.0141834
-0.0145291
-0.0148829
-0.0152393
-0.0156021
-0.0159715
-0.0163462
-0.0167228
-0.0171001
-0.0174858
-0.0178811
-0.0182884
-0.018702
-0.0191265
-0.0195585
-0.0199973
-0.0204442
-0.0208963
-0.0213605
-0.021828
-0.0223087
-0.0227942
-0.0232908
-0.0237972
-0.0243094
-0.0248369
-0.0253675
-0.0259132
-0.0264667
-0.0270284
-0.0276062
-0.0281868
-0.0287845
-0.0293903
-0.0300046
-0.030635
-0.0312714
-0.0319194
-0.0325734
-0.0332449
-0.0338247
-0.0344037
0.0261391
0.0193189
0.00967423
0.00280024
0.000164391
0.000372558
0.00114455
0.00132303
0.000993535
0.000561316
0.000149185
-0.00020665
-0.000476218
-0.000759863
-0.00109619
-0.00139361
-0.00163648
-0.00187208
-0.00210876
-0.0023573
-0.00263454
-0.00291842
-0.00318803
-0.00345398
-0.00372848
-0.00401909
-0.00432946
-0.00464173
-0.00493076
-0.00520762
-0.00550344
-0.00580224
-0.00607025
-0.00632968
-0.00662673
-0.00693128
-0.00719192
-0.00745423
-0.00776379
-0.00808114
-0.00839006
-0.00870171
-0.00900107
-0.0092942
-0.00960552
-0.00993481
-0.0102555
-0.0105591
-0.0108809
-0.0112329
-0.0115609
-0.0118605
-0.0121851
-0.0125294
-0.0128514
-0.0131675
-0.0135031
-0.0138439
-0.0141833
-0.014529
-0.0148828
-0.0152392
-0.0156021
-0.0159714
-0.0163462
-0.0167227
-0.0171001
-0.0174857
-0.0178811
-0.0182884
-0.0187019
-0.0191265
-0.0195584
-0.0199973
-0.0204442
-0.0208963
-0.0213605
-0.021828
-0.0223087
-0.0227942
-0.0232908
-0.0237972
-0.0243094
-0.0248369
-0.0253675
-0.0259132
-0.0264667
-0.0270284
-0.0276062
-0.0281868
-0.0287845
-0.0293903
-0.0300046
-0.030635
-0.0312714
-0.0319194
-0.0325734
-0.0332449
-0.0338247
-0.0344036
0.0250614
0.0192243
0.00989357
0.00306636
0.000324843
0.000433542
0.00116964
0.00134178
0.00101073
0.000576171
0.000161146
-0.000197424
-0.000468913
-0.000753758
-0.00109092
-0.00138887
-0.00163215
-0.00186821
-0.00210527
-0.00235411
-0.00263167
-0.00291585
-0.00318569
-0.00345185
-0.00372654
-0.0040173
-0.00432782
-0.00464025
-0.00492936
-0.00520628
-0.0055022
-0.00580114
-0.00606923
-0.00632868
-0.0066258
-0.00693047
-0.00719115
-0.00745346
-0.0077631
-0.00808052
-0.00838947
-0.00870117
-0.00900058
-0.00929372
-0.00960506
-0.0099344
-0.0102551
-0.0105588
-0.0108806
-0.0112327
-0.0115606
-0.0118602
-0.0121849
-0.0125292
-0.0128512
-0.0131674
-0.0135029
-0.0138438
-0.0141832
-0.0145289
-0.0148827
-0.0152391
-0.015602
-0.0159713
-0.0163461
-0.0167227
-0.0171
-0.0174857
-0.017881
-0.0182884
-0.0187019
-0.0191264
-0.0195584
-0.0199973
-0.0204442
-0.0208963
-0.0213605
-0.0218279
-0.0223087
-0.0227942
-0.0232908
-0.0237972
-0.0243094
-0.0248369
-0.0253675
-0.0259132
-0.0264667
-0.0270284
-0.0276062
-0.0281868
-0.0287845
-0.0293903
-0.0300046
-0.030635
-0.0312714
-0.0319194
-0.0325734
-0.0332449
-0.0338247
-0.0344037
0.0240856
0.0191041
0.0101492
0.00338604
0.000530757
0.000511652
0.00119935
0.00136577
0.00103489
0.000597456
0.000178321
-0.000184342
-0.000459329
-0.000746403
-0.00108455
-0.00138293
-0.00162669
-0.00186338
-0.00210105
-0.00235035
-0.00262825
-0.00291269
-0.0031828
-0.00344926
-0.00372425
-0.00401525
-0.00432597
-0.00463857
-0.00492779
-0.00520475
-0.00550078
-0.00579987
-0.00606808
-0.00632757
-0.00662475
-0.00692952
-0.00719025
-0.0074526
-0.00776235
-0.00807983
-0.00838878
-0.00870055
-0.00900002
-0.00929319
-0.00960455
-0.00993393
-0.0102547
-0.0105584
-0.0108802
-0.0112323
-0.0115603
-0.0118599
-0.0121846
-0.012529
-0.012851
-0.0131672
-0.0135027
-0.0138436
-0.0141831
-0.0145288
-0.0148826
-0.015239
-0.0156019
-0.0159713
-0.0163461
-0.0167226
-0.0171
-0.0174856
-0.017881
-0.0182883
-0.0187019
-0.0191264
-0.0195584
-0.0199973
-0.0204442
-0.0208963
-0.0213605
-0.0218279
-0.0223086
-0.0227942
-0.0232908
-0.0237972
-0.0243094
-0.0248369
-0.0253675
-0.0259132
-0.0264667
-0.0270284
-0.0276062
-0.0281868
-0.0287845
-0.0293903
-0.0300046
-0.030635
-0.0312714
-0.0319194
-0.0325734
-0.033245
-0.0338248
-0.0344037
0.0231093
0.0189104
0.0103955
0.00371542
0.000749778
0.000595935
0.00122975
0.00139226
0.0010644
0.000624741
0.000201227
-0.00016633
-0.000446428
-0.000736986
-0.00107636
-0.00137511
-0.00161939
-0.00185686
-0.00209544
-0.00234552
-0.00262387
-0.00290858
-0.003179
-0.00344589
-0.0037213
-0.00401261
-0.00432356
-0.00463635
-0.00492575
-0.0052028
-0.0054989
-0.00579818
-0.00606663
-0.00632624
-0.00662341
-0.0069282
-0.00718902
-0.00745154
-0.00776145
-0.00807895
-0.00838789
-0.00869973
-0.0089993
-0.00929251
-0.00960389
-0.00993329
-0.0102541
-0.0105578
-0.0108797
-0.0112319
-0.0115599
-0.0118595
-0.0121843
-0.0125287
-0.0128508
-0.0131669
-0.0135025
-0.0138434
-0.0141829
-0.0145286
-0.0148825
-0.0152389
-0.0156018
-0.0159712
-0.016346
-0.0167226
-0.0170999
-0.0174856
-0.0178809
-0.0182883
-0.0187018
-0.0191264
-0.0195584
-0.0199972
-0.0204442
-0.0208962
-0.0213605
-0.0218279
-0.0223086
-0.0227942
-0.0232908
-0.0237972
-0.0243094
-0.0248369
-0.0253675
-0.0259132
-0.0264667
-0.0270284
-0.0276062
-0.0281868
-0.0287845
-0.0293903
-0.0300046
-0.030635
-0.0312714
-0.0319194
-0.0325734
-0.033245
-0.033825
-0.0344038
0.022134
0.0186496
0.0106323
0.00405082
0.000976615
0.000683866
0.00125906
0.00141836
0.00109583
0.000654872
0.000227274
-0.000145217
-0.000431164
-0.000725853
-0.00106649
-0.00136549
-0.00161026
-0.0018485
-0.00208818
-0.00233931
-0.00261826
-0.00290331
-0.0031742
-0.0034417
-0.00371767
-0.00400932
-0.00432039
-0.00463334
-0.00492302
-0.00520023
-0.00549633
-0.00579582
-0.00606475
-0.00632463
-0.00662167
-0.00692632
-0.00718732
-0.00745017
-0.00776029
-0.00807779
-0.00838667
-0.00869859
-0.00899832
-0.00929164
-0.009603
-0.00993237
-0.0102532
-0.0105571
-0.010879
-0.0112312
-0.0115593
-0.0118589
-0.0121837
-0.0125282
-0.0128503
-0.0131665
-0.0135022
-0.0138431
-0.0141826
-0.0145283
-0.0148823
-0.0152387
-0.0156016
-0.015971
-0.0163458
-0.0167224
-0.0170998
-0.0174855
-0.0178808
-0.0182882
-0.0187018
-0.0191263
-0.0195583
-0.0199972
-0.0204442
-0.0208962
-0.0213605
-0.0218279
-0.0223086
-0.0227942
-0.0232908
-0.0237972
-0.0243094
-0.0248369
-0.0253675
-0.0259132
-0.0264667
-0.0270284
-0.0276062
-0.0281868
-0.0287845
-0.0293903
-0.0300046
-0.030635
-0.0312714
-0.0319194
-0.0325734
-0.0332451
-0.0338252
-0.034404
0.0211777
0.0183372
0.010862
0.0043926
0.00121094
0.0007756
0.00128713
0.00144303
0.00112786
0.00068646
0.000254775
-0.000122763
-0.000414805
-0.000713803
-0.00105562
-0.00135478
-0.00159992
-0.00183879
-0.00207951
-0.00233175
-0.00261133
-0.00289683
-0.00316841
-0.0034368
-0.00371354
-0.00400555
-0.00431655
-0.00462948
-0.00491946
-0.00519686
-0.00549286
-0.00579259
-0.00606231
-0.00632269
-0.00661945
-0.00692377
-0.00718503
-0.00744841
-0.00775879
-0.00807622
-0.00838499
-0.00869701
-0.008997
-0.00929051
-0.0096018
-0.00993104
-0.010252
-0.0105561
-0.010878
-0.0112302
-0.0115584
-0.0118581
-0.012183
-0.0125275
-0.0128497
-0.013166
-0.0135017
-0.0138426
-0.0141822
-0.014528
-0.014882
-0.0152384
-0.0156014
-0.0159708
-0.0163456
-0.0167223
-0.0170996
-0.0174853
-0.0178807
-0.0182881
-0.0187017
-0.0191262
-0.0195583
-0.0199971
-0.0204441
-0.0208962
-0.0213604
-0.0218279
-0.0223086
-0.0227942
-0.0232908
-0.0237972
-0.0243094
-0.0248369
-0.0253675
-0.0259132
-0.0264667
-0.0270284
-0.0276062
-0.0281868
-0.0287845
-0.0293903
-0.0300046
-0.030635
-0.0312714
-0.0319194
-0.0325734
-0.0332451
-0.0338254
-0.0344042
0.0202543
0.0179784
0.0110781
0.00473777
0.00145238
0.000871818
0.0013142
0.0014658
0.00116007
0.000719334
0.000283418
-9.94588e-05
-0.000397768
-0.000701205
-0.00104425
-0.00134358
-0.00158903
-0.00182836
-0.00206997
-0.00232319
-0.00260331
-0.00288927
-0.00316176
-0.00343133
-0.00370909
-0.00400155
-0.00431232
-0.00462498
-0.00491514
-0.00519268
-0.00548842
-0.00578837
-0.00605921
-0.00632037
-0.00661675
-0.00692055
-0.00718217
-0.00744626
-0.0077569
-0.00807417
-0.00838277
-0.00869487
-0.00899526
-0.00928907
-0.00960025
-0.00992923
-0.0102503
-0.0105547
-0.0108768
-0.0112288
-0.011557
-0.011857
-0.012182
-0.0125265
-0.0128487
-0.0131651
-0.0135009
-0.0138419
-0.0141815
-0.0145274
-0.0148815
-0.015238
-0.015601
-0.0159705
-0.0163453
-0.016722
-0.0170994
-0.0174851
-0.0178805
-0.0182879
-0.0187015
-0.0191261
-0.0195581
-0.019997
-0.020444
-0.0208961
-0.0213604
-0.0218278
-0.0223085
-0.0227941
-0.0232907
-0.0237971
-0.0243094
-0.0248369
-0.0253675
-0.0259132
-0.0264666
-0.0270284
-0.0276062
-0.0281868
-0.0287845
-0.0293903
-0.0300046
-0.030635
-0.0312714
-0.0319194
-0.0325735
-0.0332452
-0.0338257
-0.0344045
0.0193726
0.0175739
0.0112711
0.00508322
0.00170218
0.000974601
0.00134134
0.00148656
0.00119221
0.000753492
0.000313284
-7.52726e-05
-0.000380065
-0.00068813
-0.00103254
-0.00133212
-0.00157793
-0.00181767
-0.00206006
-0.00231413
-0.00259462
-0.00288096
-0.00315444
-0.0034254
-0.00370442
-0.00399746
-0.00430797
-0.00462016
-0.00491033
-0.00518784
-0.00548312
-0.00578322
-0.00605543
-0.00631763
-0.00661355
-0.00691671
-0.00717883
-0.00744381
-0.00775467
-0.00807166
-0.00837995
-0.00869212
-0.00899304
-0.00928733
-0.00959835
-0.00992691
-0.0102481
-0.0105529
-0.0108751
-0.0112269
-0.0115551
-0.0118554
-0.0121806
-0.0125251
-0.0128474
-0.013164
-0.0134999
-0.013841
-0.0141806
-0.0145266
-0.0148808
-0.0152373
-0.0156004
-0.01597
-0.0163449
-0.0167216
-0.0170991
-0.0174848
-0.0178802
-0.0182877
-0.0187013
-0.0191259
-0.019558
-0.0199969
-0.0204439
-0.020896
-0.0213603
-0.0218277
-0.0223085
-0.0227941
-0.0232907
-0.0237971
-0.0243094
-0.0248368
-0.0253674
-0.0259132
-0.0264666
-0.0270284
-0.0276062
-0.0281868
-0.0287845
-0.0293904
-0.0300046
-0.030635
-0.0312714
-0.0319194
-0.0325735
-0.0332453
-0.0338261
-0.0344049
0.0185385
0.0171263
0.0114326
0.00542749
0.00196275
0.00108653
0.00136971
0.00150501
0.00122359
0.000788702
0.000344449
-5.00897e-05
-0.000361599
-0.000674464
-0.00102038
-0.00132033
-0.00156662
-0.00180685
-0.00205004
-0.00230493
-0.0025857
-0.00287231
-0.00314673
-0.00341912
-0.0036995
-0.00399326
-0.00430354
-0.00461521
-0.00490527
-0.0051826
-0.00547723
-0.00577739
-0.00605107
-0.00631447
-0.00660991
-0.00691235
-0.00717511
-0.00744114
-0.00775224
-0.0080688
-0.00837662
-0.00868878
-0.00899033
-0.00928525
-0.00959613
-0.00992416
-0.0102453
-0.0105507
-0.010873
-0.0112245
-0.0115528
-0.0118535
-0.0121788
-0.0125233
-0.0128458
-0.0131626
-0.0134986
-0.0138397
-0.0141795
-0.0145256
-0.0148798
-0.0152365
-0.0155997
-0.0159693
-0.0163443
-0.0167211
-0.0170986
-0.0174844
-0.0178799
-0.0182873
-0.018701
-0.0191256
-0.0195577
-0.0199967
-0.0204437
-0.0208958
-0.0213601
-0.0218276
-0.0223084
-0.022794
-0.0232906
-0.023797
-0.0243093
-0.0248368
-0.0253674
-0.0259132
-0.0264666
-0.0270283
-0.0276061
-0.0281868
-0.0287845
-0.0293903
-0.0300046
-0.030635
-0.0312714
-0.0319193
-0.0325735
-0.0332454
-0.0338266
-0.0344053
0.0177572
0.016642
0.0115567
0.00576922
0.00223557
0.00120935
0.00139999
0.00152051
0.00125337
0.000824754
0.000377139
-2.36149e-05
-0.000342083
-0.000659898
-0.00100744
-0.00130794
-0.00155493
-0.00179587
-0.00204003
-0.00229582
-0.00257684
-0.00286359
-0.00313884
-0.00341261
-0.00369435
-0.00398885
-0.00429895
-0.0046101
-0.00490003
-0.00517712
-0.00547098
-0.00577111
-0.00604631
-0.00631099
-0.00660593
-0.0069076
-0.00717107
-0.00743832
-0.00774968
-0.00806572
-0.00837292
-0.00868494
-0.00898717