/*--------------------------------*- C++ -*----------------------------------*\
| =========                 |                                                 |
| \\      /  F ield         | OpenFOAM: The Open Source CFD Toolbox           |
|  \\    /   O peration     | Version:  2106                                  |
|   \\  /    A nd           | Website:  www.openfoam.com                      |
|    \\/     M anipulation  |                                                 |
\*---------------------------------------------------------------------------*/
FoamFile
{
    version     2.0;
    format      ascii;
    arch        "LSB;label=32;scalar=64";
    class       volScalarField;
    location    "0.81";
    object      p;
}
// * * * * * * * * * * * * * * * * * * * * * * * * * * * * * * * * * * * * * //

dimensions      [0 2 -2 0 0 0 0];

internalField   nonuniform List<scalar> 
9600
(
-1.19541e-10
6.4604e-05
-6.80556e-05
0.000550169
0.000588662
-0.00097167
0.000460135
0.00077968
0.000137822
4.90583e-05
-0.000316049
0.000500163
0.000534971
0.00112614
0.00138373
0.00235918
0.00294451
0.00533649
0.00709962
0.01305
9.56765e-07
5.99234e-05
-6.25931e-05
0.000549768
0.000569762
-0.00092753
0.00046626
0.000768672
0.000145011
3.34269e-05
-0.000310251
0.000504091
0.000533782
0.00112297
0.00138962
0.00235367
0.00295789
0.00530758
0.00711634
0.0123794
6.31658e-07
5.41717e-05
-5.48906e-05
0.000548447
0.000557852
-0.000908046
0.000469904
0.000753165
0.000154233
1.65429e-05
-0.000297742
0.000511475
0.000529447
0.00112321
0.00139678
0.00234538
0.00297791
0.00526305
0.00710368
0.0117741
-1.67066e-06
4.80601e-05
-4.54032e-05
0.000547548
0.000545119
-0.000889929
0.00047098
0.00073423
0.000161599
6.8426e-08
-0.000281694
0.000522613
0.000518944
0.00112492
0.00140383
0.00233303
0.00300143
0.00520525
0.00706938
0.0111982
-5.85328e-06
4.16898e-05
-3.34089e-05
0.000546494
0.000531145
-0.000872123
0.000470736
0.00071137
0.000168361
-1.58886e-05
-0.000263418
0.000534483
0.000507414
0.0011262
0.00141157
0.00231715
0.00302487
0.00513746
0.00701302
0.0106598
-1.1662e-05
3.53031e-05
-1.90591e-05
0.000544673
0.000516125
-0.000854116
0.000469541
0.000685524
0.00017587
-3.13865e-05
-0.000243529
0.000545683
0.000495895
0.00112586
0.0014205
0.00229762
0.00304718
0.00506284
0.0069346
0.0101491
-1.8679e-05
2.90567e-05
-2.85298e-06
0.000541994
0.000500349
-0.000835611
0.000467589
0.000658026
0.000184226
-4.66707e-05
-0.000222435
0.000556067
0.000484997
0.00112313
0.00143028
0.002275
0.00306692
0.00498319
0.00683261
0.0096639
-2.64085e-05
2.29339e-05
1.47132e-05
0.000538594
0.000484002
-0.000816493
0.000465062
0.000629731
0.000193112
-6.20399e-05
-0.000200362
0.000565586
0.000474573
0.00111786
0.00144033
0.00225012
0.00308198
0.00489971
0.00670659
0.00920228
-3.44316e-05
1.67888e-05
3.32687e-05
0.000534679
0.000467173
-0.000796761
0.0004621
0.000601094
0.000202202
-7.77018e-05
-0.000177443
0.000574308
0.000464504
0.00111012
0.00144998
0.00222392
0.00309034
0.00481304
0.00655723
0.00876004
-4.2491e-05
1.04386e-05
5.25901e-05
0.000530433
0.000449893
-0.000776476
0.000458866
0.000572314
0.000211207
-9.36803e-05
-0.000153867
0.000582478
0.000454595
0.0011003
0.00145858
0.00219715
0.00309023
0.00472319
0.00638603
0.00833226
-5.04834e-05
3.72851e-06
7.25625e-05
0.000525979
0.000432174
-0.000755706
0.000455536
0.000543424
0.000219904
-0.000109848
-0.000129932
0.000590353
0.000444559
0.00108913
0.00146538
0.00217021
0.00308043
0.00462955
0.00619512
0.00791459
-5.84009e-05
-3.44798e-06
9.31265e-05
0.000521381
0.000414045
-0.000734518
0.000452232
0.000514382
0.000228126
-0.000125993
-0.000106051
0.000598153
0.000434125
0.00107735
0.00146949
0.0021433
0.00306032
0.00453083
0.00598748
0.00750352
-6.62718e-05
-1.11558e-05
0.000114245
0.000516671
0.000395555
-0.000712979
0.000448995
0.000485151
0.000235727
-0.000141857
-8.27359e-05
0.000606202
0.00042295
0.00106546
0.00147014
0.00211637
0.00302974
0.00442503
0.00576707
0.00709687
-7.4124e-05
-1.94373e-05
0.000135885
0.000511866
0.000376761
-0.000691157
0.000445792
0.000455736
0.000242555
-0.000157159
-6.05095e-05
0.000614935
0.000410505
0.00105387
0.00146685
0.00208874
0.00298917
0.00430971
0.00553787
0.00669433
-8.19704e-05
-2.83297e-05
0.00015801
0.000506978
0.000357717
-0.000669108
0.000442533
0.000426196
0.000248427
-0.000171597
-3.98831e-05
0.000624763
0.000396296
0.00104285
0.00145939
0.00205909
0.00294006
0.00418235
0.00530241
0.00629688
-8.98061e-05
-3.78743e-05
0.000180573
0.000502023
0.00033847
-0.000646882
0.000439109
0.000396655
0.000253116
-0.000184832
-2.14329e-05
0.000636058
0.000380004
0.00103232
0.00144797
0.00202549
0.0028842
0.00404129
0.00506195
0.00590645
-9.76057e-05
-4.8121e-05
0.000203511
0.000497024
0.000319063
-0.000624513
0.000435394
0.000367307
0.000256337
-0.000196471
-5.76407e-06
0.000649082
0.000361428
0.001022
0.00143338
0.00198533
0.00282279
0.00388642
0.00481582
0.00552545
-0.000105323
-5.91299e-05
0.000226748
0.00049201
0.00029952
-0.000602004
0.000431236
0.000338383
0.000257762
-0.000206102
6.63929e-06
0.000663989
0.000340587
0.00101121
0.00141706
0.00193591
0.00275598
0.00371959
0.00456182
0.00515564
-0.000112891
-7.09737e-05
0.00025019
0.000487029
0.000279853
-0.00057933
0.000426445
0.000310157
0.000257036
-0.000213378
1.54218e-05
0.000680855
0.000317856
0.000998257
0.00140079
0.00187558
0.00268274
0.00354377
0.00429767
0.00479766
-0.000120222
-8.37365e-05
0.000273727
0.000482143
0.000260065
-0.000556429
0.000420803
0.000282928
0.0002538
-0.000218077
2.0345e-05
0.00069943
0.000293993
0.000981055
0.0013859
0.00180393
0.00260121
0.00336272
0.00402252
0.00445108
-0.000127217
-9.75102e-05
0.000297226
0.000477439
0.000240132
-0.000533217
0.000414096
0.000256999
0.000247743
-0.00022009
2.13007e-05
0.0007191
0.000270183
0.000957301
0.00137273
0.00172139
0.0025086
0.00318015
0.00373754
0.00411382
-0.000133755
-0.000112398
0.000320535
0.000473021
0.000220005
-0.000509585
0.00040607
0.000232706
0.0002386
-0.000219369
1.8432e-05
0.000738946
0.000247733
0.000924202
0.00136088
0.00162953
0.00240175
0.00299857
0.00344509
0.00378254
-0.000139701
-0.000128513
0.00034348
0.000469009
0.000199619
-0.000485366
0.000396433
0.000210322
0.000226165
-0.000216091
1.23177e-05
0.000757734
0.000227901
0.000880365
0.001349
0.00153079
0.00227829
0.00281922
0.00314862
0.00345315
-0.000144901
-0.000145962
0.000365834
0.000465557
0.000178849
-0.000460339
0.000384958
0.000189952
0.000210412
-0.000210735
3.90997e-06
0.000773958
0.000211835
0.000825337
0.00133485
0.00142785
0.00213682
0.002642
0.00285268
0.00312184
-0.000149194
-0.00016485
0.000387332
0.000462874
0.000157516
-0.000434269
0.000371508
0.000171536
0.00019154
-0.00020403
-5.65401e-06
0.000786145
0.00019986
0.000760029
0.00131561
0.00132302
0.0019772
0.00246541
0.00256242
0.00278556
-0.000152412
-0.000185266
0.000407683
0.000461189
0.000135417
-0.000406937
0.000355997
0.000154856
0.000170016
-0.000197011
-1.52874e-05
0.000793407
0.000191854
0.000686133
0.00128821
0.00121824
0.00180054
0.00228744
0.00228321
0.00244261
-0.000154377
-0.00020729
0.000426521
0.000460785
0.000112348
-0.00037815
0.00033848
0.000139468
0.000146637
-0.000190951
-2.43048e-05
0.000795308
0.000186482
0.000604343
0.00125034
0.00111512
0.00160848
0.00210521
0.00202055
0.00209419
-0.000154905
-0.000230996
0.000443389
0.000462035
8.80678e-05
-0.000347798
0.000319247
0.000124695
0.000122497
-0.000186942
-3.24418e-05
0.000791506
0.000182385
0.000515364
0.00120026
0.00101515
0.00140333
0.00191478
0.00177842
0.00174554
-0.000153811
-0.00025637
0.000457764
0.00046527
6.23479e-05
-0.000315884
0.000298745
0.000109639
9.88708e-05
-0.000185592
-4.01959e-05
0.000782039
0.000178032
0.000419402
0.00113634
0.000919773
0.00118882
0.0017119
0.00155794
0.00140598
-0.000150907
-0.000283333
0.000469007
0.000470827
3.50626e-05
-0.000282539
0.000277722
9.30262e-05
7.69323e-05
-0.000187145
-4.87797e-05
0.000767536
0.000172438
0.000316404
0.00105629
0.000829732
0.00096965
0.00149277
0.00135665
0.00108784
-0.000146056
-0.000311736
0.000476379
0.000479109
6.18644e-06
-0.000248169
0.000257327
7.34031e-05
5.73164e-05
-0.000191237
-6.00224e-05
0.000748233
0.000165261
0.000206772
0.000962195
0.000744896
0.000750844
0.00125464
0.0011676
0.000802667
-0.000139164
-0.000341299
0.00047902
0.0004904
-2.43247e-05
-0.000213416
0.000238908
4.94317e-05
4.00976e-05
-0.000196775
-7.59566e-05
0.000723437
0.00015677
9.14654e-05
0.000851858
0.000664318
0.000538279
0.000997221
0.000980354
0.000557217
-0.000130128
-0.00037168
0.000476008
0.000504863
-5.56281e-05
-0.000179172
0.000224142
2.01849e-05
2.46582e-05
-0.000202415
-9.82067e-05
0.000691995
0.000147615
-2.78668e-05
0.000724624
0.000587009
0.00033549
0.000723697
0.000783361
0.000349503
-0.000118917
-0.000402378
0.00046642
0.000522437
-8.70849e-05
-0.000146586
0.000214877
-1.44933e-05
9.32223e-06
-0.000206781
-0.000127836
0.000652266
0.000138712
-0.000149165
0.000579928
0.000509377
0.00014911
0.000439812
0.000567781
0.000168797
-0.000105605
-0.000432721
0.0004494
0.000542779
-0.000117768
-0.000115555
0.000212586
-5.40291e-05
-8.38298e-06
-0.00020849
-0.000165084
0.000601692
0.000131065
-0.000270455
0.000416537
0.000428027
-1.88311e-05
0.000152847
0.000330218
1.36416e-06
-9.03447e-05
-0.000462041
0.00042431
0.000565287
-0.000146453
-9.08227e-05
0.000218131
-9.69956e-05
-3.13102e-05
-0.000206599
-0.000209475
0.000537283
0.000124066
-0.000387397
0.000234994
0.000337488
-0.000166342
-0.000129762
7.18342e-05
-0.000166231
-7.33491e-05
-0.000489617
0.000390635
0.000589071
-0.000171622
-7.30532e-05
0.000231635
-0.000141359
-6.22526e-05
-0.000201054
-0.000258703
0.000456736
0.000115256
-0.00050105
3.82991e-05
0.000231403
-0.000293824
-0.000400589
-0.000204261
-0.000344913
-5.49181e-05
-0.000514662
0.000348221
0.000612811
-0.00019176
-6.32436e-05
0.000252426
-0.000184464
-0.000104146
-0.000193125
-0.00030813
0.000359531
0.000100828
-0.000586709
-0.000168759
0.000103597
-0.000404544
-0.000651928
-0.000493124
-0.00054154
-3.54829e-05
-0.000536393
0.000297411
0.000634868
-0.000205686
-6.1832e-05
0.000278837
-0.000222973
-0.000159091
-0.000185742
-0.000352599
0.000246985
7.50413e-05
-0.000656902
-0.000379502
-5.02557e-05
-0.000505541
-0.000876318
-0.000786957
-0.000759259
-1.55675e-05
-0.000553933
0.000238885
0.000653341
-0.000212481
-6.8844e-05
0.00030828
-0.000253724
-0.000227108
-0.000183188
-0.000388307
0.000122517
3.22339e-05
-0.00071321
-0.000585747
-0.00023066
-0.000606341
-0.00106909
-0.0010747
-0.000997788
4.10605e-06
-0.000566326
0.000173903
0.000665924
-0.000211718
-8.4103e-05
0.000337706
-0.000274168
-0.00030716
-0.000190349
-0.000413715
-8.5926e-06
-3.11074e-05
-0.000759841
-0.000780656
-0.00043395
-0.000717253
-0.00123213
-0.0013451
-0.00125193
2.25985e-05
-0.000572685
0.000104391
0.000670099
-0.000203521
-0.000106969
0.000363745
-0.00028269
-0.000396303
-0.000211903
-0.000429458
-0.000140122
-0.000116073
-0.00080216
-0.000959598
-0.00065399
-0.000845904
-0.00137305
-0.00158907
-0.00151195
3.89684e-05
-0.00057224
3.25465e-05
0.00066361
-0.000188685
-0.000135848
0.000383225
-0.000278727
-0.000489999
-0.00025128
-0.000438257
-0.000266189
-0.000221796
-0.000845933
-0.00111944
-0.000883596
-0.000997068
-0.00150111
-0.00180176
-0.00176608
5.23278e-05
-0.000564405
-3.92057e-05
0.000644548
-0.000168765
-0.000167035
0.000393753
-0.000263292
-0.000583421
-0.000309693
-0.000445185
-0.000382368
-0.000345098
-0.000897137
-0.00125841
-0.00111427
-0.00117291
-0.00162704
-0.00198467
-0.00200394
6.20484e-05
-0.000549106
-0.000108328
0.000611705
-0.000145794
-0.000197983
0.000393277
-0.000240029
-0.000671545
-0.000385983
-0.000456061
-0.000486954
-0.00048164
-0.000961106
-0.00137759
-0.00133694
-0.00137068
-0.00176196
-0.0021448
-0.00221799
6.77646e-05
-0.000526936
-0.000172421
0.000564629
-0.000121207
-0.000227576
0.000380314
-0.000213404
-0.000750553
-0.000476668
-0.000474058
-0.000579539
-0.000627184
-0.00104151
-0.00148179
-0.00154314
-0.00158246
-0.00191384
-0.0022919
-0.00240675
6.93045e-05
-0.000499201
-0.00022922
0.000503988
-0.000102285
-0.000254096
0.000354892
-0.000187433
-0.000819599
-0.000577787
-0.000500467
-0.000659931
-0.000777707
-0.00114108
-0.00157744
-0.00172621
-0.00179753
-0.00208473
-0.00243843
-0.0025749
6.6832e-05
-0.000468033
-0.000276963
0.000432149
-9.04951e-05
-0.000277143
0.000319386
-0.000165611
-0.000879239
-0.000686784
-0.000536149
-0.000727929
-0.000928593
-0.00126226
-0.00167168
-0.00188454
-0.0020046
-0.00226885
-0.00259385
-0.00273158
6.06781e-05
-0.000435671
-0.000314552
0.000352898
-8.9329e-05
-0.000298223
0.000277364
-0.000149535
-0.000932175
-0.000802003
-0.000582118
-0.000782579
-0.00107409
-0.00140492
-0.00177327
-0.00202212
-0.0021934
-0.00245575
-0.00276038
-0.00288856
5.12833e-05
-0.000404084
-0.000341768
0.000270584
-0.000101223
-0.000320614
0.00023178
-0.000138775
-0.000980691
-0.000924046
-0.000639966
-0.000823836
-0.00120638
-0.00156442
-0.00189249
-0.00214609
-0.00235827
-0.00263489
-0.00293119
-0.00305248
3.92268e-05
-0.000374821
-0.000359639
0.000189325
-0.000126938
-0.000346054
0.00018336
-0.000130156
-0.00102469
-0.00105466
-0.000712753
-0.000853451
-0.00131622
-0.00173303
-0.00203656
-0.00226703
-0.00250034
-0.00279685
-0.00309677
-0.00322053
2.5128e-05
-0.000349001
-0.000370191
0.000112666
-0.000164698
-0.000383736
0.000131034
-0.000120916
-0.00106215
-0.00119504
-0.000806626
-0.000875211
-0.00139596
-0.00189911
-0.00220468
-0.00239926
-0.00262622
-0.00293641
-0.00324977
-0.00338487
9.57147e-06
-0.000327419
-0.000375896
4.28435e-05
-0.000210552
-0.000434073
6.97508e-05
-0.000111099
-0.00108595
-0.00134269
-0.000929703
-0.000897178
-0.00144275
-0.00204609
-0.00238859
-0.00255354
-0.0027468
-0.00305419
-0.00338296
-0.0035384
-6.76694e-06
-0.000310339
-0.000379603
-1.95733e-05
-0.000259847
-0.000497244
-6.66896e-06
-0.000103046
-0.00108916
-0.0014916
-0.00108769
-0.000934858
-0.00145981
-0.00215835
-0.00257571
-0.0027322
-0.00287848
-0.00315795
-0.00349205
-0.00367469
-2.34256e-05
-0.000297939
-0.0003839
-7.40606e-05
-0.000308671
-0.000571484
-0.000101781
-0.000103935
-0.00107019
-0.0016252
-0.0012777
-0.00100778
-0.00145595
-0.00222632
-0.00274589
-0.00292593
-0.00303169
-0.00326127
-0.00358034
-0.0037868
-4.03485e-05
-0.000290081
-0.000390837
-0.000122545
-0.000353428
-0.000652513
-0.000217421
-0.000122936
-0.00103101
-0.00172672
-0.00149104
-0.00113006
-0.00145244
-0.00225108
-0.00288051
-0.00312156
-0.00320528
-0.00337846
-0.00365838
-0.00387241
-5.77304e-05
-0.000286284
-0.000401832
-0.000168493
-0.000391568
-0.000734265
-0.000353465
-0.000168113
-0.000979542
-0.00178788
-0.00170704
-0.00130281
-0.00147575
-0.00224068
-0.00296752
-0.00330049
-0.00338926
-0.00351411
-0.00374117
-0.00393791
-7.61931e-05
-0.000290086
-0.00041724
-0.000215853
-0.0004225
-0.00080959
-0.000507984
-0.000246446
-0.000928442
-0.00180791
-0.00190026
-0.00151705
-0.00154733
-0.00221666
-0.00300576
-0.00344535
-0.00357227
-0.00366233
-0.00383669
-0.00399673
-9.62567e-05
-0.000289113
-0.000436208
-0.000268594
-0.000448036
-0.000872684
-0.000673004
-0.000360864
-0.000892476
-0.00179054
-0.00205407
-0.00175253
-0.00167371
-0.00220887
-0.00300276
-0.00354384
-0.00373946
-0.00381542
-0.00394271
-0.00406077
-0.000118507
-0.000290711
-0.000456949
-0.000328304
-0.000474331
-0.000920071
-0.000835531
-0.000508591
-0.000886171
-0.00174794
-0.0021608
-0.00198088
-0.00184507
-0.00223985
-0.0029818
-0.00359495
-0.00387584
-0.00396536
-0.0040527
-0.00413119
-0.000143506
-0.000295472
-0.000478093
-0.000394253
-0.000508352
-0.000952113
-0.00098314
-0.00068298
-0.00091871
-0.00169908
-0.00222193
-0.00218098
-0.00204481
-0.00231618
-0.00296996
-0.00360865
-0.00397171
-0.00410198
-0.0041627
-0.00420178
-0.000171539
-0.000304283
-0.000499217
-0.000464908
-0.000553791
-0.000974641
-0.00110792
-0.000870763
-0.00099259
-0.00166127
-0.00224379
-0.00234082
-0.0022487
-0.00242967
-0.00298302
-0.00360711
-0.00402741
-0.00421348
-0.00426962
-0.00426989
-0.000202786
-0.000318085
-0.000520367
-0.000537339
-0.000611748
-0.000995964
-0.00120882
-0.00105522
-0.00110331
-0.00164889
-0.00224113
-0.00245686
-0.00243681
-0.00256875
-0.00302339
-0.00360705
-0.00405424
-0.00429181
-0.00436675
-0.00433705
-0.000237338
-0.000337667
-0.000541773
-0.000608513
-0.000681153
-0.00102328
-0.0012888
-0.00122443
-0.00124077
-0.00166999
-0.00223258
-0.00253427
-0.00259508
-0.0027147
-0.0030863
-0.0036153
-0.00406651
-0.0043382
-0.00444353
-0.00440231
-0.000275135
-0.00036354
-0.000565635
-0.000676565
-0.000759776
-0.00106108
-0.00135383
-0.00137402
-0.00139049
-0.00172329
-0.0022325
-0.00258254
-0.00271789
-0.00285032
-0.0031632
-0.00363177
-0.00407147
-0.00435967
-0.00449096
-0.00445599
-0.000316054
-0.000395915
-0.000593482
-0.000741036
-0.000843873
-0.00111155
-0.00141189
-0.00150371
-0.00154078
-0.00180283
-0.00224877
-0.00261571
-0.00280903
-0.00296372
-0.00324009
-0.00365251
-0.00406939
-0.00436235
-0.00450737
-0.00448518
-0.000360097
-0.000434575
-0.000626658
-0.000802874
-0.000929775
-0.00117392
-0.00147068
-0.00161703
-0.00168444
-0.00190044
-0.00228367
-0.00264411
-0.00287424
-0.00305109
-0.00330461
-0.00366917
-0.00405697
-0.00434698
-0.00449613
-0.00448284
-0.000407417
-0.000478914
-0.000665747
-0.000863403
-0.00101556
-0.00124619
-0.00153426
-0.00171907
-0.00181968
-0.00200894
-0.00233603
-0.00267362
-0.00292092
-0.00311369
-0.00334938
-0.00367154
-0.00402647
-0.00430814
-0.00445663
-0.00444585
-0.000458001
-0.000528355
-0.000710855
-0.000923987
-0.00110021
-0.00132609
-0.00160493
-0.00181567
-0.00194747
-0.0021241
-0.00240484
-0.00270944
-0.00295509
-0.00315247
-0.00337091
-0.00365109
-0.00396721
-0.00423358
-0.00437852
-0.0043663
-0.0005117
-0.000582353
-0.000761745
-0.000985902
-0.00118365
-0.00141112
-0.00168333
-0.00191226
-0.00207131
-0.00224369
-0.00248909
-0.00275827
-0.0029855
-0.00317109
-0.00336519
-0.00360015
-0.00386611
-0.00410396
-0.00423932
-0.00422315
-0.000568307
-0.000640439
-0.000817942
-0.00104976
-0.00126609
-0.00149977
-0.00176893
-0.00201135
-0.00219491
-0.00236959
-0.00258856
-0.00282612
-0.0030272
-0.00318241
-0.00333356
-0.00350999
-0.00370695
-0.00388957
-0.00399755
-0.00397232
-0.00062733
-0.000701946
-0.000878582
-0.00111613
-0.00134786
-0.00159067
-0.00186128
-0.00211483
-0.00232009
-0.00250406
-0.00270623
-0.00291548
-0.0030926
-0.00321176
-0.00329889
-0.00338889
-0.0034803
-0.00355334
-0.00357676
-0.00351184
-0.000688505
-0.000765859
-0.000942295
-0.00118502
-0.00142941
-0.00168315
-0.00195891
-0.00222382
-0.00244848
-0.00264662
-0.00284356
-0.00303074
-0.00318421
-0.00326736
-0.00328099
-0.00326051
-0.00320596
-0.00309499
-0.00291869
-0.00268984
-0.000751027
-0.000831287
-0.00100807
-0.00125523
-0.00151125
-0.00177608
-0.00206027
-0.00233886
-0.00258077
-0.00279161
-0.00298981
-0.00316476
-0.0032943
-0.00333627
-0.00325305
-0.00304871
-0.00274515
-0.00236762
-0.00199052
-0.0017158
-0.000813557
-0.00089686
-0.00107506
-0.00132616
-0.00159241
-0.00186783
-0.00216291
-0.00245751
-0.00271788
-0.00293569
-0.00312167
-0.00326661
-0.00333289
-0.00327939
-0.00306282
-0.00268376
-0.0022378
-0.00180906
-0.00146552
-0.00128482
-0.000874704
-0.000960738
-0.00114153
-0.00139707
-0.00167222
-0.00195718
-0.00226073
-0.0025689
-0.00285214
-0.00307681
-0.00323486
-0.00331667
-0.00327397
-0.00308182
-0.00275772
-0.00231782
-0.00186047
-0.00147578
-0.00121036
-0.00111728
-0.000932202
-0.00102131
-0.00120467
-0.00146597
-0.00174965
-0.00204351
-0.0023517
-0.00265668
-0.0029425
-0.00318173
-0.00333397
-0.00337554
-0.00325212
-0.00293244
-0.00249185
-0.0019966
-0.00151372
-0.00112385
-0.000878313
-0.000830065
-0.000983847
-0.00107615
-0.00126186
-0.00152762
-0.00182003
-0.00212415
-0.00243986
-0.0027402
-0.00298317
-0.0031453
-0.0032066
-0.0031781
-0.00309134
-0.00289412
-0.00258121
-0.00218276
-0.00173014
-0.00131526
-0.00102655
-0.000940155
-0.00102688
-0.00112243
-0.00131176
-0.00157838
-0.00187592
-0.00218076
-0.00249193
-0.00280271
-0.00307389
-0.00327128
-0.00335151
-0.00325871
-0.00302614
-0.00267213
-0.0022131
-0.00173283
-0.00129022
-0.00094031
-0.000734254
-0.000728892
-0.00106042
-0.00116152
-0.00135551
-0.00162656
-0.00193297
-0.00224988
-0.00256512
-0.00286791
-0.00311896
-0.00326732
-0.00330338
-0.00320125
-0.0029631
-0.00262572
-0.00220274
-0.00175088
-0.00133865
-0.00101572
-0.00083276
-0.000841013
0.0159198
0.00903847
0.00026373
-0.00605261
-0.00796814
-0.0074228
-0.00662341
-0.00613517
-0.00585727
-0.00562707
-0.0053772
-0.0051812
-0.00512752
-0.0051873
-0.00529811
-0.00540229
-0.00543805
-0.00542994
-0.00544901
-0.00551001
-0.00559393
-0.00567219
-0.00573
-0.00581558
-0.00596622
-0.00614019
-0.00630276
-0.00646422
-0.00660519
-0.0067086
-0.00682131
-0.00695161
-0.00705502
-0.00713889
-0.0072389
-0.00734583
-0.00743822
-0.00752876
-0.00763631
-0.00776126
-0.00789205
-0.00801433
-0.00813534
-0.00825743
-0.00836798
-0.00847497
-0.00858329
-0.00869346
-0.00881082
-0.00894088
-0.00907413
-0.00920368
-0.00933507
-0.00947132
-0.00960302
-0.00973512
-0.00987569
-0.0100214
-0.0101629
-0.010301
-0.0104456
-0.0105905
-0.0107398
-0.0108955
-0.0110456
-0.0111883
-0.0113375
-0.0114979
-0.0116736
-0.0118365
-0.0119749
-0.0121222
-0.0122776
-0.0124088
-0.0125389
-0.0126994
-0.012863
-0.0130112
-0.013153
-0.0132973
-0.0134408
-0.0135851
-0.0137403
-0.0138973
-0.0140608
-0.0142199
-0.0143808
-0.0145416
-0.0146964
-0.0148598
-0.0150125
-0.0151759
-0.0153359
-0.0154977
-0.0156659
-0.0158311
-0.0160034
-0.0161654
-0.0163647
-0.0165562
0.0150636
0.00887268
0.000346461
-0.00590547
-0.00787788
-0.00738006
-0.00659858
-0.00611929
-0.00584636
-0.00561878
-0.00537015
-0.00517467
-0.00512142
-0.0051817
-0.00529311
-0.00539796
-0.00543419
-0.00542631
-0.00544558
-0.00550682
-0.00559102
-0.00566955
-0.00572752
-0.0058132
-0.00596401
-0.0061382
-0.00630091
-0.00646252
-0.00660365
-0.00670712
-0.00681989
-0.00695032
-0.00705385
-0.00713778
-0.00723785
-0.00734487
-0.00743734
-0.00752792
-0.00763552
-0.00776052
-0.00789137
-0.00801369
-0.00813473
-0.00825685
-0.00836744
-0.00847445
-0.00858279
-0.00869298
-0.00881035
-0.00894042
-0.00907369
-0.00920326
-0.00933466
-0.00947093
-0.00960265
-0.00973476
-0.00987534
-0.0100211
-0.0101626
-0.0103007
-0.0104453
-0.0105902
-0.0107395
-0.0108952
-0.0110454
-0.0111881
-0.0113373
-0.0114977
-0.0116734
-0.0118363
-0.0119747
-0.0121221
-0.0122774
-0.0124087
-0.0125388
-0.0126993
-0.0128629
-0.0130111
-0.013153
-0.0132972
-0.0134407
-0.0135851
-0.0137403
-0.0138973
-0.0140608
-0.0142199
-0.0143807
-0.0145416
-0.0146963
-0.0148597
-0.0150125
-0.0151758
-0.0153359
-0.0154977
-0.0156659
-0.0158311
-0.0160034
-0.0161654
-0.0163647
-0.0165562
0.0142878
0.0087213
0.000523707
-0.00563054
-0.0077222
-0.00732146
-0.00656831
-0.00609669
-0.00582936
-0.00560641
-0.00536111
-0.00516781
-0.00511579
-0.00517657
-0.00528826
-0.00539359
-0.00543038
-0.00542293
-0.0054425
-0.00550394
-0.00558832
-0.00566707
-0.0057252
-0.005811
-0.00596199
-0.00613638
-0.00629924
-0.00646103
-0.0066023
-0.00670581
-0.00681862
-0.00694918
-0.0070528
-0.00713676
-0.00723691
-0.00734401
-0.00743653
-0.00752715
-0.0076348
-0.00775986
-0.00789077
-0.00801313
-0.00813419
-0.00825636
-0.00836697
-0.008474
-0.00858236
-0.00869255
-0.00880994
-0.00894003
-0.00907332
-0.00920289
-0.00933431
-0.0094706
-0.00960233
-0.00973444
-0.00987503
-0.0100208
-0.0101624
-0.0103004
-0.010445
-0.01059
-0.0107393
-0.010895
-0.0110452
-0.0111879
-0.0113371
-0.0114975
-0.0116733
-0.0118362
-0.0119746
-0.012122
-0.0122773
-0.0124086
-0.0125387
-0.0126992
-0.0128628
-0.0130111
-0.0131529
-0.0132972
-0.0134407
-0.013585
-0.0137402
-0.0138973
-0.0140608
-0.0142199
-0.0143807
-0.0145416
-0.0146963
-0.0148597
-0.0150125
-0.0151758
-0.0153359
-0.0154976
-0.0156659
-0.0158311
-0.0160034
-0.0161654
-0.0163647
-0.0165562
0.0135528
0.00856198
0.000745667
-0.00528337
-0.00750756
-0.00723612
-0.00652088
-0.00605893
-0.00580021
-0.00558553
-0.00534704
-0.00515874
-0.00510947
-0.00517096
-0.00528242
-0.00538785
-0.00542546
-0.00541908
-0.00543934
-0.0055009
-0.00558525
-0.00566418
-0.00572259
-0.00580858
-0.0059597
-0.00613421
-0.00629726
-0.00645931
-0.00660081
-0.00670438
-0.00681721
-0.00694789
-0.0070516
-0.00713563
-0.00723585
-0.00734303
-0.00743559
-0.00752626
-0.00763399
-0.00775913
-0.00789011
-0.00801252
-0.00813362
-0.00825583
-0.00836647
-0.00847351
-0.00858191
-0.00869212
-0.00880951
-0.00893962
-0.00907294
-0.00920252
-0.00933395
-0.00947026
-0.00960199
-0.00973411
-0.00987472
-0.0100205
-0.0101621
-0.0103002
-0.0104448
-0.0105897
-0.0107391
-0.0108948
-0.011045
-0.0111877
-0.0113369
-0.0114973
-0.0116731
-0.0118361
-0.0119745
-0.0121219
-0.0122772
-0.0124085
-0.0125386
-0.0126991
-0.0128628
-0.013011
-0.0131529
-0.0132971
-0.0134406
-0.013585
-0.0137402
-0.0138972
-0.0140607
-0.0142198
-0.0143807
-0.0145416
-0.0146963
-0.0148597
-0.0150124
-0.0151758
-0.0153358
-0.0154976
-0.0156659
-0.015831
-0.0160034
-0.0161654
-0.0163647
-0.0165563
0.0128222
0.00837284
0.000973582
-0.0049141
-0.00726782
-0.00713689
-0.00646367
-0.0060097
-0.00575956
-0.00555532
-0.0053267
-0.00514627
-0.0051016
-0.00516429
-0.00527497
-0.00537986
-0.00541853
-0.00541418
-0.00543588
-0.00549764
-0.00558166
-0.00566068
-0.00571958
-0.00580589
-0.00595696
-0.00613138
-0.00629457
-0.00645698
-0.00659885
-0.00670258
-0.00681547
-0.00694623
-0.00705008
-0.00713425
-0.00723455
-0.00734175
-0.00743435
-0.00752511
-0.00763295
-0.00775819
-0.00788928
-0.00801178
-0.00813293
-0.00825519
-0.00836586
-0.00847295
-0.00858139
-0.00869163
-0.00880905
-0.00893918
-0.00907251
-0.00920211
-0.00933355
-0.00946988
-0.00960163
-0.00973375
-0.00987437
-0.0100202
-0.0101617
-0.0102998
-0.0104445
-0.0105894
-0.0107388
-0.0108945
-0.0110447
-0.0111875
-0.0113367
-0.0114971
-0.0116729
-0.0118359
-0.0119743
-0.0121217
-0.0122771
-0.0124084
-0.0125385
-0.012699
-0.0128627
-0.0130109
-0.0131528
-0.0132971
-0.0134406
-0.0135849
-0.0137401
-0.0138972
-0.0140607
-0.0142198
-0.0143807
-0.0145415
-0.0146963
-0.0148597
-0.0150124
-0.0151758
-0.0153358
-0.0154976
-0.0156659
-0.015831
-0.0160033
-0.0161654
-0.0163647
-0.0165564
0.0120959
0.00815195
0.00119264
-0.00453977
-0.00701485
-0.00703106
-0.00640423
-0.00595601
-0.00571246
-0.00551892
-0.00530173
-0.00513102
-0.00509222
-0.00515644
-0.00526585
-0.00536959
-0.00540943
-0.00540797
-0.00543193
-0.0054941
-0.00557757
-0.00565663
-0.00571636
-0.00580318
-0.00595396
-0.00612794
-0.00629108
-0.00645379
-0.00659612
-0.00670018
-0.00681314
-0.00694397
-0.0070481
-0.00713257
-0.00723297
-0.00734011
-0.00743271
-0.00752358
-0.00763156
-0.00775693
-0.00788817
-0.00801081
-0.00813206
-0.00825438
-0.0083651
-0.00847225
-0.00858077
-0.00869106
-0.00880851
-0.00893867
-0.00907203
-0.00920165
-0.0093331
-0.00946945
-0.00960122
-0.00973336
-0.00987398
-0.0100198
-0.0101613
-0.0102995
-0.0104441
-0.0105891
-0.0107384
-0.0108942
-0.0110444
-0.0111872
-0.0113364
-0.0114969
-0.0116727
-0.0118357
-0.0119741
-0.0121215
-0.0122769
-0.0124082
-0.0125383
-0.0126989
-0.0128626
-0.0130108
-0.0131527
-0.013297
-0.0134405
-0.0135848
-0.0137401
-0.0138971
-0.0140606
-0.0142198
-0.0143806
-0.0145415
-0.0146962
-0.0148597
-0.0150124
-0.0151758
-0.0153358
-0.0154976
-0.0156659
-0.015831
-0.0160033
-0.0161654
-0.0163646
-0.0165565
0.0113826
0.00790083
0.00139559
-0.00416513
-0.00674941
-0.00691843
-0.00634409
-0.00590059
-0.00566157
-0.00547852
-0.00527368
-0.00511381
-0.00508163
-0.00514761
-0.00525546
-0.00535763
-0.00539869
-0.00540059
-0.00542734
-0.00549016
-0.005573
-0.00565213
-0.00571307
-0.00580066
-0.00595098
-0.00612421
-0.00628703
-0.00644982
-0.00659253
-0.00669698
-0.00680997
-0.00694082
-0.00704542
-0.0071305
-0.00723107
-0.00733809
-0.00743067
-0.00752167
-0.00762978
-0.00775525
-0.00788666
-0.0080095
-0.0081309
-0.00825333
-0.00836412
-0.00847136
-0.00857999
-0.00869037
-0.00880787
-0.00893805
-0.00907145
-0.00920111
-0.00933258
-0.00946895
-0.00960075
-0.00973291
-0.00987353
-0.0100193
-0.0101609
-0.010299
-0.0104437
-0.0105887
-0.010738
-0.0108938
-0.011044
-0.0111868
-0.0113361
-0.0114965
-0.0116723
-0.0118354
-0.0119739
-0.0121213
-0.0122767
-0.012408
-0.0125381
-0.0126987
-0.0128624
-0.0130106
-0.0131525
-0.0132968
-0.0134404
-0.0135847
-0.01374
-0.013897
-0.0140606
-0.0142197
-0.0143805
-0.0145414
-0.0146962
-0.0148596
-0.0150124
-0.0151758
-0.0153358
-0.0154976
-0.0156658
-0.015831
-0.0160033
-0.0161654
-0.0163646
-0.0165567
0.0106893
0.00762076
0.00157759
-0.00379156
-0.00646975
-0.00679678
-0.00628296
-0.00584443
-0.00560797
-0.00543501
-0.00524319
-0.00509496
-0.00506997
-0.00513794
-0.0052442
-0.00534466
-0.0053869
-0.00539237
-0.00542214
-0.00548577
-0.00556802
-0.00564733
-0.00570977
-0.00579837
-0.0059482
-0.00612055
-0.00628289
-0.00644547
-0.00658833
-0.00669304
-0.00680584
-0.00693657
-0.00704184
-0.00712784
-0.00722877
-0.00733571
-0.00742831
-0.00751949
-0.00762769
-0.00775318
-0.0078847
-0.00800777
-0.00812937
-0.00825192
-0.00836284
-0.00847025
-0.00857903
-0.00868953
-0.00880708
-0.00893728
-0.00907073
-0.00920045
-0.00933195
-0.00946834
-0.00960019
-0.0097324
-0.00987301
-0.0100187
-0.0101603
-0.0102984
-0.0104432
-0.0105882
-0.0107375
-0.0108932
-0.0110434
-0.0111863
-0.0113357
-0.0114961
-0.0116718
-0.011835
-0.0119735
-0.0121209
-0.0122763
-0.0124077
-0.0125378
-0.0126984
-0.0128621
-0.0130104
-0.0131523
-0.0132966
-0.0134402
-0.0135846
-0.0137398
-0.0138969
-0.0140604
-0.0142196
-0.0143805
-0.0145414
-0.0146961
-0.0148596
-0.0150123
-0.0151757
-0.0153358
-0.0154975
-0.0156658
-0.015831
-0.0160033
-0.0161653
-0.0163645
-0.0165569
0.0100205
0.00731533
0.00173619
-0.00342019
-0.00617509
-0.00666459
-0.00622084
-0.00578874
-0.00555278
-0.00538901
-0.00521058
-0.00507465
-0.00505733
-0.00512759
-0.00523237
-0.00533108
-0.00537447
-0.00538353
-0.00541644
-0.00548098
-0.00556274
-0.00564232
-0.00570643
-0.0057962
-0.0059456
-0.00611709
-0.00627896
-0.00644119
-0.00658394
-0.00668864
-0.00680093
-0.00693128
-0.00703728
-0.00712447
-0.00722594
-0.00733291
-0.00742569
-0.00751717
-0.00762547
-0.00775087
-0.00788241
-0.00800565
-0.00812742
-0.00825009
-0.00836121
-0.00846885
-0.00857786
-0.00868852
-0.00880613
-0.00893632
-0.00906981