/*--------------------------------*- C++ -*----------------------------------*\
| =========                 |                                                 |
| \\      /  F ield         | OpenFOAM: The Open Source CFD Toolbox           |
|  \\    /   O peration     | Version:  2106                                  |
|   \\  /    A nd           | Website:  www.openfoam.com                      |
|    \\/     M anipulation  |                                                 |
\*---------------------------------------------------------------------------*/
FoamFile
{
    version     2.0;
    format      ascii;
    arch        "LSB;label=32;scalar=64";
    class       volScalarField;
    location    "0.54";
    object      p;
}
// * * * * * * * * * * * * * * * * * * * * * * * * * * * * * * * * * * * * * //

dimensions      [0 2 -2 0 0 0 0];

internalField   nonuniform List<scalar> 
9600
(
1.5974e-10
-0.000437732
0.00134747
0.00108939
-1.48394e-05
0.000523639
-0.000194862
0.000554111
0.000676718
0.00114259
0.00133176
0.00158159
0.00304501
0.00343463
0.00451397
0.00445547
0.00614794
0.00796802
0.00917836
0.0149215
2.78552e-07
-0.000437388
0.00134546
0.00108543
-6.8163e-06
0.000507068
-0.000194591
0.00056279
0.00067759
0.00114442
0.00133082
0.00157891
0.00304757
0.00341455
0.00451991
0.00440453
0.00616296
0.00782915
0.00918666
0.0142487
1.96441e-07
-0.000437061
0.00134225
0.00108032
2.66157e-06
0.000489588
-0.000189281
0.000575014
0.000676603
0.00114412
0.00133086
0.00157403
0.0030452
0.00338617
0.00452082
0.00435066
0.00617263
0.00771771
0.00915533
0.0135691
-7.59845e-07
-0.000436656
0.0013383
0.00107342
1.10901e-05
0.000473217
-0.000180436
0.000587221
0.000672929
0.00114112
0.00133266
0.00156644
0.0030396
0.00335215
0.00451693
0.00429601
0.00617297
0.0076161
0.00909349
0.0129299
-2.62648e-06
-0.000436039
0.00133331
0.00106405
1.97927e-05
0.000458185
-0.000169391
0.000598647
0.000666948
0.00113614
0.00133579
0.00155666
0.00303323
0.00331319
0.00451375
0.00423859
0.00617199
0.00751013
0.00899984
0.012349
-5.30546e-06
-0.000435208
0.00132743
0.00105253
2.94164e-05
0.000444192
-0.000157136
0.000608834
0.000659443
0.00112997
0.00133963
0.00154554
0.00302657
0.00327194
0.00451006
0.00418141
0.00616741
0.00739877
0.00887673
0.0118099
-8.63179e-06
-0.000434198
0.00132093
0.0010396
3.9771e-05
0.00043075
-0.000144258
0.000617628
0.000651235
0.00112327
0.00134388
0.00153356
0.00301965
0.00322941
0.00450377
0.00412607
0.00615233
0.00728938
0.00872342
0.0112987
-1.24082e-05
-0.000433078
0.00131409
0.00102598
5.05513e-05
0.000417246
-0.000130987
0.000625241
0.000642812
0.00111646
0.00134848
0.00152106
0.00301212
0.00318627
0.00449423
0.0040722
0.0061244
0.0071829
0.00853711
0.010811
-1.64733e-05
-0.000431955
0.00130714
0.00101229
6.14959e-05
0.000403166
-0.000117278
0.000631993
0.000634289
0.00110969
0.00135342
0.00150834
0.00300333
0.00314354
0.00448061
0.00402
0.0060828
0.00707846
0.00831858
0.0103445
-2.07395e-05
-0.000430938
0.00130023
0.000998887
7.24136e-05
0.000388236
-0.000103006
0.000638138
0.000625606
0.0011029
0.00135864
0.0014956
0.00299281
0.00310216
0.00446179
0.00397024
0.0060261
0.00697556
0.00807055
0.00989464
-2.51799e-05
-0.00043011
0.00129341
0.000985904
8.32223e-05
0.000372391
-8.812e-05
0.000643846
0.00061669
0.00109598
0.00136404
0.00148286
0.0029804
0.00306275
0.00443663
0.00392386
0.0059527
0.00687369
0.00779657
0.00945493
-2.97955e-05
-0.000429523
0.00128667
0.000973327
9.39202e-05
0.000355675
-7.26494e-05
0.000649233
0.000607505
0.00108881
0.00136941
0.00147011
0.00296593
0.00302562
0.00440408
0.00388126
0.00586119
0.00677157
0.00750128
0.00901867
-3.45908e-05
-0.000429209
0.00127994
0.000961083
0.000104531
0.000338172
-5.66807e-05
0.000654389
0.000598027
0.00108129
0.0013745
0.00145735
0.00294909
0.00299094
0.00436313
0.0038426
0.00575084
0.00666686
0.00719039
0.00858058
-3.95643e-05
-0.000429195
0.00127315
0.000949099
0.000115071
0.000319984
-4.03458e-05
0.000659392
0.000588212
0.00107341
0.00137902
0.0014446
0.00292959
0.00295883
0.00431276
0.0038075
0.0056219
0.00655608
0.00687024
0.0081377
-4.47035e-05
-0.000429517
0.0012662
0.000937323
0.000125538
0.000301207
-2.38098e-05
0.000664319
0.000577997
0.00106518
0.00138267
0.00143192
0.00290707
0.00292947
0.00425221
0.00377488
0.00547586
0.0064351
0.00654694
0.00768893
-4.99834e-05
-0.00043022
0.00125902
0.000925725
0.000135905
0.000281936
-7.25926e-06
0.000669266
0.000567282
0.00105672
0.00138509
0.00141946
0.00288115
0.0029033
0.00418123
0.00374293
0.00531508
0.00630027
0.00622554
0.00723431
-5.53669e-05
-0.000431362
0.00125153
0.000914293
0.000146132
0.000262282
9.08876e-06
0.000674381
0.000555904
0.00104814
0.00138596
0.00140731
0.00285144
0.00287988
0.00410013
0.00370938
0.00514193
0.00614852
0.00590982
0.00677509
-6.08057e-05
-0.000433021
0.00124365
0.00090303
0.000156158
0.000242379
2.4991e-05
0.000679839
0.000543676
0.00103953
0.00138511
0.00139547
0.00281782
0.00285748
0.00400973
0.00367188
0.00495828
0.00597796
0.00560259
0.0063136
-6.62377e-05
-0.000435289
0.00123527
0.000891958
0.000165909
0.000222377
4.01977e-05
0.000685833
0.00053039
0.00103096
0.00138243
0.00138379
0.00278044
0.00283512
0.00391112
0.00362831
0.00476559
0.00578821
0.0053055
0.00585254
-7.15846e-05
-0.000438272
0.00122631
0.000881122
0.000175307
0.000202443
5.44166e-05
0.000692605
0.000515831
0.00102242
0.00137787
0.0013719
0.00273972
0.00281145
0.00380511
0.00357713
0.00456508
0.00557941
0.00501924
0.00539522
-7.67521e-05
-0.000442095
0.00121665
0.000870585
0.000184263
0.000182782
6.72939e-05
0.000700425
0.00049987
0.00101372
0.00137165
0.00135917
0.00269636
0.00278521
0.00369178
0.00351747
0.00435766
0.00535146
0.00474407
0.00494573
-8.16343e-05
-0.000446888
0.00120617
0.000860419
0.000192667
0.000163623
7.84612e-05
0.000709546
0.000482444
0.00100449
0.00136422
0.00134464
0.00265124
0.00275585
0.00357061
0.00344908
0.00414456
0.00510409
0.00447943
0.00450828
-8.61104e-05
-0.000452795
0.00119472
0.000850732
0.000200362
0.000145256
8.75262e-05
0.000720154
0.00046359
0.00099425
0.00135622
0.00132721
0.00260473
0.00272325
0.00344102
0.00337144
0.00392746
0.00483733
0.00422391
0.00408747
-9.00388e-05
-0.000459956
0.00118213
0.000841681
0.000207177
0.000128001
9.4107e-05
0.000732341
0.000443471
0.000982273
0.00134869
0.00130576
0.00255645
0.0026877
0.00330215
0.00328347
0.00370907
0.00455193
0.00397465
0.00368824
-9.32717e-05
-0.000468522
0.00116814
0.000833456
0.000212919
0.000112148
9.78926e-05
0.000746073
0.000422478
0.000967491
0.00134302
0.00127961
0.00250533
0.00265006
0.003153
0.00318308
0.00349324
0.00425001
0.00372678
0.00331457
-9.56495e-05
-0.000478652
0.00115252
0.000826291
0.000217325
9.80493e-05
9.86158e-05
0.000761092
0.000401407
0.000948494
0.00134021
0.00124881
0.00244951
0.00261168
0.0029936
0.00306704
0.00328332
0.00393543
0.00347447
0.00296887
-9.70011e-05
-0.000490463
0.00113492
0.000820459
0.000220088
8.56873e-05
9.61682e-05
0.000776932
0.00038118
0.000923878
0.00134053
0.00121394
0.00238679
0.00257339
0.0028251
0.00293213
0.00308106
0.00361375
0.00321216
0.00265058
-9.71599e-05
-0.000504035
0.00111492
0.000816305
0.000220863
7.63255e-05
9.06937e-05
0.000792806
0.00036289
0.000892548
0.00134389
0.00117641
0.00231435
0.00253502
0.00265037
0.00277569
0.00288587
0.00329203
0.0029362
0.00235535
-9.5963e-05
-0.000519429
0.00109202
0.000814217
0.000219286
6.95609e-05
8.25383e-05
0.000807601
0.000348159
0.00085337
0.00134925
0.00113814
0.0022293
0.002495
0.00247377
0.0025967
0.00269496
0.00297727
0.00264592
0.00207578
-9.32556e-05
-0.000536648
0.00106563
0.000814631
0.000215043
6.54365e-05
7.234e-05
0.000819857
0.000338625
0.000805948
0.0013543
0.00110169
0.00213012
0.00245042
0.0022998
0.00239597
0.00250374
0.00267526
0.00234385
0.00180246
-8.88837e-05
-0.000555629
0.00103497
0.000818056
0.000207995
6.37402e-05
6.10698e-05
0.000827802
0.000335267
0.00075075
0.00135583
0.0010699
0.00201681
0.00239698
0.0021325
0.00217599
0.00230675
0.00238975
0.0020359
0.00152585
-8.2726e-05
-0.000576215
0.00099918
0.000824894
0.000198196
6.39103e-05
5.01333e-05
0.000829562
0.000338339
0.000689331
0.00135055
0.00104427
0.0018904
0.00233036
0.00197458
0.00194116
0.00209889
0.00212127
0.00173003
0.0012398
-7.47272e-05
-0.000598132
0.000957358
0.000835341
0.000185857
6.51083e-05
4.13365e-05
0.000823514
0.000347523
0.00062372
0.00133486
0.00102466
0.00175389
0.0022469
0.00182666
0.001697
0.00187624
0.00186727
0.00143472
0.000944803
-6.48688e-05
-0.000620995
0.000908563
0.000849421
0.000171536
6.6098e-05
3.6652e-05
0.000808943
0.000361335
0.000556609
0.00130555
0.00100972
0.00161134
0.00214409
0.00168746
0.00144969
0.00163719
0.00162285
0.00115596
0.000647732
-5.31903e-05
-0.000644299
0.00085185
0.000866915
0.000156101
6.52235e-05
3.78325e-05
0.000785764
0.000377209
0.000491056
0.00126096
0.000996176
0.00146703
0.00202163
0.00155441
0.00120446
0.00138248
0.00138167
0.000894609
0.000358591
-3.98361e-05
-0.000667422
0.000786483
0.000887189
0.000140716
6.05616e-05
4.59953e-05
0.000755028
0.000391821
0.000429372
0.00120085
0.000979738
0.001324
0.00188111
0.00142479
0.000964916
0.0011142
0.00113899
0.000647482
8.48831e-05
-2.50642e-05
-0.000689625
0.000712003
0.000909117
0.000127497
5.01442e-05
6.14391e-05
0.000719255
0.000401116
0.000372351
0.00112728
0.000956504
0.00118314
0.00172477
0.00129645
0.000734202
0.000834684
0.000892782
0.000411134
-0.000172051
-9.22741e-06
-0.000710103
0.000628207
0.000931282
0.000118952
3.23196e-05
8.34288e-05
0.000681775
0.000401302
0.000319357
0.00104355
0.000924496
0.00104476
0.00155404
0.00116693
0.000515754
0.000546249
0.000640891
0.000184511
-0.000414119
7.21414e-06
-0.000727914
0.000534963
0.00095174
0.000116207
6.25535e-06
0.0001096
0.000646271
0.000390204
0.000268115
0.000952906
0.000883011
0.000909388
0.00137029
0.00103255
0.000312619
0.000253059
0.000379106
-3.23449e-05
-0.000641466
2.36142e-05
-0.000741974
0.00043297
0.000967832
0.000120763
-2.79118e-05
0.000136438
0.000616041
0.00036787
0.000215331
0.000857601
0.000832652
0.000777066
0.00117579
0.000889883
0.000125492
-3.82676e-05
0.000103701
-0.000242453
-0.000851686
3.91563e-05
-0.000751213
0.000324123
0.000976564
0.00013344
-6.91098e-05
0.000159916
0.000593784
0.000335891
0.000157495
0.000758083
0.00077494
0.000647893
0.000973115
0.000736737
-4.81598e-05
-0.000321154
-0.000184632
-0.000451802
-0.00104344
5.28249e-05
-0.00075463
0.0002105
0.000974814
0.000154226
-0.000115171
0.000175604
0.000580312
0.000298106
9.08993e-05
0.000652832
0.000710451
0.000523357
0.000765242
0.000571579
-0.000211834
-0.000591154
-0.00048207
-0.000666364
-0.00121887
6.35019e-05
-0.000751498
9.46922e-05
0.000959608
0.000182198
-0.000163203
0.000180041
0.000575266
0.000259214
1.41052e-05
0.000539347
0.000638006
0.000404505
0.000555716
0.000393474
-0.000368569
-0.000844794
-0.000784862
-0.000890721
-0.00138151
7.02873e-05
-0.000741243
-2.04321e-05
0.000928207
0.000215455
-0.000209946
0.000171172
0.000574802
0.000222952
-6.9934e-05
0.000416818
0.000556162
0.000290178
0.000347981
0.000203875
-0.000521124
-0.00107907
-0.00108891
-0.00112972
-0.00153669
7.25006e-05
-0.00072386
-0.000131806
0.000878544
0.000253477
-0.000252066
0.000147549
0.000573667
0.000191493
-0.000157855
0.000285074
0.000464041
0.000178523
0.000143913
5.66988e-06
-0.000671504
-0.00129242
-0.00138754
-0.00138735
-0.00169404
6.96451e-05
-0.000700049
-0.000236668
0.000809799
0.000287857
-0.000287072
0.000109806
0.000566941
0.000165151
-0.000246271
0.000146008
0.000361716
6.79654e-05
-5.58467e-05
-0.000199916
-0.000822192
-0.00148475
-0.00167184
-0.00166126
-0.00186545
6.14176e-05
-0.000671105
-0.000332653
0.000723553
0.000316302
-0.000314186
6.11652e-05
0.000551813
0.00014141
-0.000334252
2.33913e-06
0.000250912
-4.21024e-05
-0.000251399
-0.000412458
-0.000975781
-0.00165721
-0.00193497
-0.00194268
-0.00206037
4.77677e-05
-0.000638962
-0.000417873
0.000622482
0.000335041
-0.000334069
4.3791e-06
0.000527042
0.000118171
-0.000421833
-0.000145347
0.000134668
-0.000150363
-0.000442772
-0.00063242
-0.00113476
-0.00181168
-0.00217215
-0.00221969
-0.00227938
2.88696e-05
-0.000605763
-0.000491111
0.000510677
0.000340659
-0.000349042
-5.86422e-05
0.00049237
9.47011e-05
-0.000510668
-0.000297081
1.45589e-05
-0.000252414
-0.000626892
-0.000861475
-0.00130377
-0.00195177
-0.00237976
-0.00248141
-0.00251292
5.05597e-06
-0.000570307
-0.000551822
0.000389857
0.000331072
-0.000362603
-0.000127114
0.000448404
7.06618e-05
-0.000601267
-0.000455471
-0.000110444
-0.000343897
-0.000797475
-0.00109794
-0.00148974
-0.00208355
-0.00255586
-0.00271942
-0.00274625
-2.32607e-05
-0.000542729
-0.000600243
0.000271366
0.000305114
-0.000377854
-0.00020074
0.000394891
4.79644e-05
-0.000692631
-0.000624665
-0.00024233
-0.000423531
-0.000946073
-0.00133403
-0.00169846
-0.00221684
-0.00270129
-0.00292711
-0.00296707
-5.55847e-05
-0.000519667
-0.000637573
0.000154032
0.000263329
-0.000397572
-0.000280325
0.000331175
2.82028e-05
-0.000782595
-0.000808327
-0.000387537
-0.00049264
-0.0010644
-0.00155917
-0.00192923
-0.00236598
-0.00282314
-0.00309859
-0.00316686
-9.13834e-05
-0.000502057
-0.000666041
4.03366e-05
0.000208198
-0.000423759
-0.00036704
0.000255392
1.08035e-05
-0.000863636
-0.0010053
-0.000557346
-0.000556033
-0.00114569
-0.00175943
-0.00217254
-0.00254321
-0.00293552
-0.00323043
-0.00333732
-0.000130057
-0.000490454
-0.000688446
-6.82982e-05
0.00014283
-0.000457192
-0.000461823
0.000164507
-6.4696e-06
-0.000927142
-0.00121018
-0.00076189
-0.000627535
-0.00118917
-0.00191842
-0.00241494
-0.00275088
-0.00305862
-0.00332915
-0.00346836
-0.000170985
-0.000485022
-0.000707574
-0.000171418
7.03097e-05
-0.000497053
-0.000565253
5.53011e-05
-2.70234e-05
-0.000968312
-0.00141325
-0.00100375
-0.00072738
-0.00120241
-0.00202072
-0.00263754
-0.00298106
-0.00320952
-0.00341198
-0.00355461
-0.000213963
-0.000485643
-0.000725362
-0.000270058
-7.1246e-06
-0.00054069
-0.000676987
-7.51094e-05
-5.74721e-05
-0.000985994
-0.00159749
-0.00127771
-0.000874039
-0.00120243
-0.0020614
-0.0028158
-0.00321729
-0.00339477
-0.00350445
-0.00360554
-0.000259007
-0.000491886
-0.000743268
-0.000365753
-8.8328e-05
-0.000585679
-0.000795069
-0.000227685
-0.000105752
-0.00098382
-0.00174593
-0.00157195
-0.00108103
-0.00121607
-0.00204727
-0.00292915
-0.00343608
-0.00360677
-0.0036294
-0.00364514
-0.000306174
-0.000503322
-0.000761859
-0.000460069
-0.000173074
-0.000629794
-0.000915175
-0.000402103
-0.000178462
-0.000969011
-0.00185058
-0.00186121
-0.00134691
-0.00127476
-0.00199282
-0.00296775
-0.00361166
-0.00382533
-0.00379491
-0.00370763
-0.000355658
-0.000519849
-0.00078139
-0.000553984
-0.000262889
-0.0006718
-0.0010311
-0.000596301
-0.000282101
-0.000952036
-0.00191168
-0.00211853
-0.00165571
-0.00140504
-0.00193141
-0.00293154
-0.0037233
-0.00402854
-0.00398942
-0.00381804
-0.000407566
-0.000541627
-0.000802225
-0.000647486
-0.000359853
-0.000712194
-0.00113646
-0.000805427
-0.000421986
-0.000945582
-0.00193257
-0.00232753
-0.0019808
-0.0016105
-0.00190783
-0.00283536
-0.00375277
-0.00419472
-0.00419423
-0.00397781
-0.000461934
-0.000569018
-0.000822753
-0.000739786
-0.000465634
-0.000753508
-0.00122687
-0.00102037
-0.000599284
-0.000962014
-0.00192233
-0.00248032
-0.00229032
-0.0018753
-0.00195497
-0.00272088
-0.00369746
-0.00429906
-0.00438994
-0.00416995
-0.000518682
-0.000602341
-0.000844229
-0.000829403
-0.000580748
-0.000800672
-0.00130001
-0.00122938
-0.000810748
-0.00101216
-0.00189546
-0.0025785
-0.00256033
-0.00217512
-0.00208298
-0.00263897
-0.00357963
-0.00431839
-0.00455009
-0.00437456
-0.000577531
-0.000641951
-0.000867417
-0.000914719
-0.000704153
-0.000859192
-0.00135732
-0.00142038
-0.00104904
-0.00110572
-0.00186709
-0.00262732
-0.00277954
-0.00247736
-0.00227879
-0.00262232
-0.00344313
-0.00425506
-0.00464211
-0.00456365
-0.000638183
-0.000688074
-0.000893632
-0.000994276
-0.000833637
-0.000932978
-0.00140337
-0.00158535
-0.00130037
-0.00124664
-0.00185476
-0.00263533
-0.00294395
-0.00275846
-0.00251975
-0.00268038
-0.0033315
-0.00413363
-0.00464762
-0.00470306
-0.000700261
-0.0007407
-0.000924584
-0.00106753
-0.000965621
-0.00102369
-0.0014459
-0.0017209
-0.00154788
-0.00142958
-0.00187605
-0.00261888
-0.00305218
-0.00300381
-0.00277874
-0.00280123
-0.0032698
-0.00399132
-0.00457688
-0.00476805
-0.000763469
-0.000799438
-0.000961938
-0.00113488
-0.00109561
-0.00113019
-0.00149372
-0.00182906
-0.00177632
-0.00164389
-0.0019417
-0.00260048
-0.00311041
-0.00319886
-0.00303253
-0.00296785
-0.00326536
-0.00386187
-0.00445349
-0.00475452
-0.000827647
-0.000863527
-0.00100689
-0.00119743
-0.0012197
-0.00124945
-0.00155331
-0.00191509
-0.00197569
-0.00187362
-0.00205254
-0.00259878
-0.00313357
-0.00333748
-0.00325839
-0.00316025
-0.0033136
-0.00376565
-0.00430875
-0.004676
-0.00089265
-0.000931916
-0.00106004
-0.0012571
-0.00133514
-0.00137717
-0.00162801
-0.00198783
-0.00214234
-0.00210065
-0.00220225
-0.00262636
-0.00314052
-0.00342782
-0.00343869
-0.00335335
-0.00340458
-0.00371202
-0.00416881
-0.00455275
-0.000958464
-0.00100323
-0.00112106
-0.00131641
-0.00144063
-0.00150782
-0.00171799
-0.00205703
-0.00227892
-0.00230959
-0.00237886
-0.00269147
-0.00314665
-0.00348103
-0.00357176
-0.00352289
-0.00352067
-0.00370239
-0.0040515
-0.00440912
-0.00102513
-0.00107615
-0.00118883
-0.00137758
-0.00153628
-0.00163603
-0.00182071
-0.00212974
-0.00239141
-0.00249184
-0.0025643
-0.00279321
-0.00316732
-0.00350911
-0.00366518
-0.00365803
-0.0036376
-0.00372771
-0.00396687
-0.00426768
-0.00109262
-0.00114948
-0.00126148
-0.00144226
-0.00162349
-0.00175725
-0.00193185
-0.00220962
-0.0024872
-0.00264606
-0.00274141
-0.00292
-0.00321485
-0.00352589
-0.003724
-0.00375987
-0.00373716
-0.00377129
-0.00391726
-0.0041482
-0.0011607
-0.00122225
-0.0013367
-0.00151097
-0.00170427
-0.00186832
-0.00204602
-0.00229778
-0.00257375
-0.00277499
-0.00290042
-0.00305573
-0.00328914
-0.00354791
-0.00375483
-0.00383077
-0.0038152
-0.00381713
-0.00389615
-0.00406235
-0.00122881
-0.0012938
-0.00141205
-0.00158267
-0.00178094
-0.00196827
-0.00215724
-0.00239228
-0.00265709
-0.0028828
-0.00303777
-0.00318532
-0.00337836
-0.00358543
-0.00376978
-0.00387158
-0.00387249
-0.00385815
-0.00389595
-0.00401294
-0.00129606
-0.0013635
-0.00148543
-0.0016553
-0.00185525
-0.00205815
-0.00226049
-0.00248834
-0.00274016
-0.00297489
-0.0031541
-0.00330162
-0.00346856
-0.00363682
-0.00378294
-0.00388715
-0.00390904
-0.003894
-0.00391149
-0.00399686
-0.00136118
-0.00143052
-0.00155539
-0.00172645
-0.00192738
-0.00213937
-0.00235325
-0.00258069
-0.0028222
-0.00305588
-0.00325124
-0.00340399
-0.0035521
-0.00369388
-0.0038039
-0.00388935
-0.00392652
-0.00392248
-0.00393565
-0.00400588
-0.00142264
-0.00149366
-0.00162078
-0.0017937
-0.00199596
-0.0022132
-0.00243522
-0.00266497
-0.0029003
-0.00312812
-0.0033304
-0.00349124
-0.00362828
-0.00375203
-0.00383822
-0.00389646
-0.0039323
-0.00393987
-0.00395681
-0.00402154
-0.00147881
-0.00155142
-0.00168026
-0.00185494
-0.0020589
-0.00227959
-0.00250676
-0.00273894
-0.00297151
-0.00319327
-0.00339348
-0.00355909
-0.00369149
-0.00380525
-0.0038851
-0.00392751
-0.00395341
-0.00396294
-0.003978
-0.00403506
-0.00152791
-0.00160201
-0.00173225
-0.00190821
-0.0021139
-0.00233695
-0.00256719
-0.00280116
-0.00303309
-0.00325174
-0.00344774
-0.00361127
-0.00373547
-0.00383194
-0.00390347
-0.00394381
-0.00397326
-0.00400391
-0.00404626
-0.00412264
-0.00156838
-0.0016436
-0.00177475
-0.00195114
-0.00215804
-0.0023828
-0.00261446
-0.00284896
-0.00308018
-0.00329766
-0.00349124
-0.00365494
-0.00378252
-0.00387536
-0.00394017
-0.00397331
-0.00398639
-0.00400028
-0.00403215
-0.00410456
-0.00160003
-0.00167881
-0.00181296
-0.00199104
-0.00219975
-0.00242714
-0.00266094
-0.00289619
-0.00312687
-0.00334327
-0.00353442
-0.00369387
-0.00381885
-0.00390877
-0.00397045
-0.00400587
-0.00402224
-0.00403866
-0.00407513
-0.00415286
0.0149986
0.00896577
0.000427746
-0.00579593
-0.00776031
-0.00725873
-0.00641286
-0.00594697
-0.00590215
-0.00621383
-0.00665528
-0.00694007
-0.00707642
-0.007212
-0.00733057
-0.00742059
-0.00756334
-0.0077503
-0.00790853
-0.00804226
-0.00820654
-0.00842051
-0.00865488
-0.00888285
-0.0091066
-0.00932948
-0.00955381
-0.00977997
-0.00999627
-0.0102051
-0.0104266
-0.0106804
-0.0109704
-0.0112912
-0.0116192
-0.0119271
-0.0122234
-0.0125091
-0.0127681
-0.0130333
-0.0133173
-0.0135856
-0.0138569
-0.0141667
-0.0144856
-0.014775
-0.0150529
-0.0153492
-0.0156572
-0.0159617
-0.016261
-0.0165511
-0.0168568
-0.0171921
-0.0175096
-0.017796
-0.0181033
-0.0184343
-0.0187463
-0.0190528
-0.0193768
-0.0197072
-0.0200309
-0.0203578
-0.0206924
-0.0210301
-0.0213735
-0.021721
-0.0220767
-0.0224349
-0.0228044
-0.0231812
-0.0235637
-0.0239486
-0.0243366
-0.0247343
-0.0251359
-0.0255504
-0.0259718
-0.026404
-0.0268444
-0.0272895
-0.0277465
-0.0282061
-0.0286777
-0.0291553
-0.0296406
-0.0301384
-0.0306389
-0.031155
-0.0316733
-0.0322064
-0.032742
-0.0332905
-0.0338449
-0.034398
-0.034959
-0.0355154
-0.0359653
-0.0363957
0.0142162
0.00883029
0.000522716
-0.00566695
-0.00768073
-0.00721704
-0.00638528
-0.00592709
-0.00588742
-0.00620269
-0.00664694
-0.00693354
-0.0070709
-0.00720729
-0.00732642
-0.00741662
-0.0075596
-0.00774696
-0.00790547
-0.00803933
-0.00820372
-0.00841785
-0.00865239
-0.0088805
-0.00910438
-0.00932739
-0.00955183
-0.00977813
-0.00999457
-0.0102035
-0.0104251
-0.010679
-0.0109691
-0.01129
-0.0116181
-0.0119261
-0.0122224
-0.0125082
-0.0127672
-0.0130325
-0.0133166
-0.0135849
-0.0138562
-0.0141661
-0.0144851
-0.0147744
-0.0150525
-0.0153488
-0.0156568
-0.0159613
-0.0162607
-0.0165508
-0.0168564
-0.0171919
-0.0175094
-0.0177958
-0.0181031
-0.0184342
-0.0187462
-0.0190526
-0.0193766
-0.0197071
-0.0200308
-0.0203577
-0.0206923
-0.0210301
-0.0213735
-0.021721
-0.0220767
-0.0224349
-0.0228044
-0.0231811
-0.0235636
-0.0239485
-0.0243365
-0.0247342
-0.0251359
-0.0255504
-0.0259718
-0.026404
-0.0268443
-0.0272895
-0.0277465
-0.028206
-0.0286777
-0.0291553
-0.0296406
-0.0301384
-0.0306389
-0.031155
-0.0316733
-0.0322064
-0.032742
-0.0332905
-0.0338449
-0.034398
-0.034959
-0.0355154
-0.0359653
-0.0363957
0.0135189
0.00874757
0.000750821
-0.00540405
-0.00753783
-0.00716373
-0.00636031
-0.0059076
-0.00587059
-0.00618848
-0.00663515
-0.00692398
-0.00706343
-0.00720172
-0.00732211
-0.00741286
-0.00755617
-0.00774385
-0.00790262
-0.00803669
-0.00820126
-0.00841555
-0.00865024
-0.00887848
-0.00910246
-0.00932557
-0.00955009
-0.0097765
-0.00999303
-0.010202
-0.0104237
-0.0106777
-0.0109678
-0.0112888
-0.0116171
-0.0119252
-0.0122215
-0.0125074
-0.0127665
-0.0130318
-0.0133159
-0.0135843
-0.0138556
-0.0141655
-0.0144846
-0.014774
-0.015052
-0.0153484
-0.0156564
-0.015961
-0.0162603
-0.0165505
-0.0168562
-0.0171916
-0.0175092
-0.0177956
-0.0181029
-0.018434
-0.018746
-0.0190525
-0.0193765
-0.019707
-0.0200307
-0.0203576
-0.0206923
-0.02103
-0.0213734
-0.0217209
-0.0220766
-0.0224349
-0.0228044
-0.0231811
-0.0235636
-0.0239485
-0.0243365
-0.0247342
-0.0251359
-0.0255504
-0.0259717
-0.026404
-0.0268443
-0.0272895
-0.0277465
-0.028206
-0.0286777
-0.0291553
-0.0296405
-0.0301384
-0.0306389
-0.031155
-0.0316733
-0.0322064
-0.0327421
-0.0332905
-0.0338449
-0.034398
-0.034959
-0.0355154
-0.0359653
-0.0363956
0.0128618
0.00866254
0.00103037
-0.00507515
-0.00734898
-0.00709519
-0.00632906
-0.00588115
-0.00584731
-0.00616861
-0.00661727
-0.00690836
-0.00705103
-0.00719268
-0.00731575
-0.00740814
-0.00755214
-0.00774007
-0.00789917
-0.00803372
-0.00819867
-0.00841315
-0.00864797
-0.00887637
-0.00910055
-0.00932377
-0.00954833
-0.00977476
-0.00999135
-0.0102004
-0.0104222
-0.0106762
-0.0109664
-0.0112875
-0.0116159
-0.0119242
-0.0122206
-0.0125066
-0.0127656
-0.0130309
-0.0133152
-0.0135836
-0.0138549
-0.0141649
-0.0144841
-0.0147735
-0.0150515
-0.0153479
-0.015656
-0.0159606
-0.01626
-0.0165501
-0.0168558
-0.0171913
-0.0175089
-0.0177953
-0.0181027
-0.0184338
-0.0187459
-0.0190523
-0.0193764
-0.0197068
-0.0200306
-0.0203575
-0.0206922
-0.0210299
-0.0213733
-0.0217209
-0.0220766
-0.0224348
-0.0228043
-0.023181
-0.0235636
-0.0239485
-0.0243365
-0.0247342
-0.0251358
-0.0255504
-0.0259717
-0.026404
-0.0268443
-0.0272895
-0.0277465
-0.028206
-0.0286777
-0.0291553
-0.0296405
-0.0301384
-0.0306388
-0.031155
-0.0316733
-0.0322064
-0.0327421
-0.0332905
-0.0338449
-0.034398
-0.0349591
-0.0355154
-0.0359654
-0.0363956
0.0121974
0.00852793
0.00130725
-0.00472932
-0.00714409
-0.00702055
-0.0062954
-0.00585037
-0.00581877
-0.00614315
-0.00659268
-0.00688564
-0.00703239
-0.00717866
-0.00730602
-0.0074016
-0.00754694
-0.00773506
-0.00789461
-0.00803008
-0.0081957
-0.00841034
-0.0086452
-0.00887385
-0.00909841
-0.0093219
-0.0095465
-0.00977287
-0.00998945
-0.0101986
-0.0104205
-0.0106744
-0.0109646
-0.0112859
-0.0116145
-0.011923
-0.0122195
-0.0125055
-0.0127645
-0.0130298
-0.0133142
-0.0135828
-0.0138542
-0.0141642
-0.0144833
-0.0147728
-0.0150509
-0.0153474
-0.0156555
-0.01596
-0.0162595
-0.0165497
-0.0168554
-0.017191
-0.0175086
-0.017795
-0.0181024
-0.0184336
-0.0187456
-0.0190521
-0.0193762
-0.0197067
-0.0200304
-0.0203574
-0.0206921
-0.0210298
-0.0213732
-0.0217208
-0.0220765
-0.0224347
-0.0228042
-0.023181
-0.0235635
-0.0239485
-0.0243365
-0.0247342
-0.0251358
-0.0255504
-0.0259717
-0.026404
-0.0268443
-0.0272895
-0.0277465
-0.028206
-0.0286777
-0.0291553
-0.0296405
-0.0301384
-0.0306388
-0.031155
-0.0316733
-0.0322064
-0.0327421
-0.0332905
-0.0338449
-0.034398
-0.0349591
-0.0355155
-0.0359655
-0.0363956
0.0115244
0.00833677
0.00157428
-0.00437277
-0.00692742
-0.00694151
-0.00626162
-0.00581845
-0.00578764
-0.00611445
-0.00656395
-0.00685817
-0.00700905
-0.00716036
-0.00729299
-0.00739303
-0.00754031
-0.00772862
-0.0078888
-0.00802571
-0.00819232
-0.00840702
-0.0086417
-0.0088706
-0.00909576
-0.00931977
-0.00954456
-0.00977087
-0.00998744
-0.0101967
-0.0104187
-0.0106725
-0.0109625
-0.0112837
-0.0116125
-0.0119213
-0.0122181
-0.0125041
-0.012763
-0.0130283
-0.0133129
-0.0135817
-0.0138532
-0.0141632
-0.0144823
-0.0147719
-0.0150501
-0.0153467
-0.0156547
-0.0159593
-0.0162588
-0.0165491
-0.0168549
-0.0171904
-0.0175081
-0.0177945
-0.018102
-0.0184332
-0.0187453
-0.0190518
-0.0193759
-0.0197064
-0.0200302
-0.0203572
-0.0206919
-0.0210297
-0.0213731
-0.0217207
-0.0220764
-0.0224346
-0.0228042
-0.0231809
-0.0235635
-0.0239484
-0.0243364
-0.0247341
-0.0251358
-0.0255503
-0.0259717
-0.0264039
-0.0268443
-0.0272895
-0.0277465
-0.028206
-0.0286777
-0.0291553
-0.0296405
-0.0301383
-0.0306388
-0.031155
-0.0316733
-0.0322064
-0.0327421
-0.0332905
-0.033845
-0.0343981
-0.0349591
-0.0355156
-0.0359657
-0.0363956
0.0108537
0.00810108
0.00183444
-0.00400393
-0.00669803
-0.00685759
-0.00622837
-0.00578663
-0.00575481
-0.00608358
-0.00653303
-0.00682838
-0.00698327
-0.00713957
-0.0072778
-0.00738292
-0.00753246
-0.00772095
-0.00788195
-0.00802074
-0.0081886
-0.00840322
-0.00863747
-0.00886649
-0.00909232
-0.00931707
-0.00954224
-0.00976862
-0.00998533
-0.010195
-0.0104171
-0.0106707
-0.0109602
-0.011281
-0.01161
-0.0119192
-0.0122162
-0.0125022
-0.012761
-0.0130263
-0.013311
-0.0135802
-0.013852
-0.0141619
-0.0144809
-0.0147705
-0.0150491
-0.0153458
-0.0156538
-0.0159582
-0.0162578
-0.0165483
-0.0168541
-0.0171897
-0.0175074
-0.0177939
-0.0181014
-0.0184327
-0.0187448
-0.0190514
-0.0193755
-0.0197061
-0.0200299
-0.0203569
-0.0206916
-0.0210294
-0.0213729
-0.0217205
-0.0220762
-0.0224345
-0.022804
-0.0231808
-0.0235634
-0.0239483
-0.0243363
-0.0247341
-0.0251357
-0.0255503
-0.0259716
-0.0264039
-0.0268443
-0.0272894
-0.0277464
-0.028206
-0.0286776
-0.0291553
-0.0296405
-0.0301383
-0.0306388
-0.031155
-0.0316733
-0.0322064
-0.0327421
-0.0332905
-0.033845
-0.0343981
-0.0349591
-0.0355157
-0.0359661
-0.0363957
0.0101991
0.00782871
0.00208355
-0.00362571
-0.00645629
-0.00676849
-0.00619588
-0.00575544
-0.00572056
-0.0060508
-0.0065006
-0.00679731
-0.00695621
-0.00711745
-0.00726134
-0.00737175
-0.00752372
-0.00771243
-0.0078744
-0.00801534
-0.00818464
-0.00839912
-0.0086327
-0.00886166
-0.00908809
-0.00931361
-0.00953929
-0.00976591
-0.00998302
-0.0101933
-0.0104159
-0.0106693
-0.010958
-0.0112782
-0.0116071
-0.0119166
-0.0122137
-0.0124997
-0.0127585
-0.0130237
-0.0133085
-0.0135783
-0.0138505
-0.0141602
-0.0144789
-0.0147687
-0.0150477
-0.0153446
-0.0156525
-0.0159568
-0.0162565
-0.0165472
-0.016853
-0.0171885
-0.0175063
-0.017793
-0.0181006
-0.0184319
-0.018744
-0.0190507
-0.0193749
-0.0197055
-0.0200294
-0.0203564
-0.0206913
-0.0210291
-0.0213726
-0.0217202
-0.022076
-0.0224343
-0.0228038
-0.0231806
-0.0235632
-0.0239482
-0.0243362
-0.024734
-0.0251356
-0.0255502
-0.0259716
-0.0264038
-0.0268442
-0.0272894
-0.0277464
-0.028206
-0.0286776
-0.0291553
-0.0296405
-0.0301383
-0.0306388
-0.031155
-0.0316733
-0.0322064
-0.0327421
-0.0332905
-0.033845
-0.0343981
-0.0349592
-0.0355159
-0.0359665
-0.0363959
0.00957197
0.00752208
0.00231155
-0.0032428
-0.00620165
-0.00667253
-0.0061634
-0.00572509
-0.00568519
-0.00601621
-0.00646675
-0.0067652
-0.00692827
-0.00709448
-0.00724401
-0.00735984
-0.00751436
-0.00770336
-0.00786637
-0.00800962
-0.00818048
-0.00839479
-0.00862761
-0.00885639
-0.00908329
-0.00930949
-0.00953568
-0.00976265
-0.00998037
-0.0101916
-0.010415
-0.0106683
-0.0109563
-0.0112757
-0.0116043
-0.0119137
-0.0122107
-0.0124966
-0.0127554
-0.0130205
-0.0133055
-0.013576
-0.0138487
-0.0141581
-0.0144762
-0.0147662
-0.0150459
-0.0153431
-0.0156508
-0.0159549
-0.0162547
-0.0165457
-0.0168517
-0.017187
-0.0175048
-0.0177917
-0.0180995
-0.0184307
-0.018743
-0.0190498
-0.0193741
-0.0197048
-0.0200287
-0.0203558
-0.0206907
-0.0210286
-0.0213721
-0.0217198
-0.0220756
-0.022434
-0.0228036
-0.0231804
-0.023563
-0.023948
-0.024336
-0.0247338
-0.0251355
-0.0255501
-0.0259715
-0.0264037
-0.0268441
-0.0272893
-0.0277463
-0.0282059
-0.0286776
-0.0291553
-0.0296405
-0.0301383
-0.0306388
-0.031155
-0.0316733
-0.0322063
-0.0327421
-0.0332905
-0.033845
-0.0343981
-0.0349592
-0.0355161
-0.035967
-0.0363961
0.00897959
0.00718368
0.00250935
-0.00285835
-0.00593212
-0.00656716
-0.00612991
-0.005696
-0.00564925
-0.00597988
-0.00643142
-0.00673207
-0.00689955
-0.0070708
-0.00722602
-0.00734736