/*--------------------------------*- C++ -*----------------------------------*\
| =========                 |                                                 |
| \\      /  F ield         | OpenFOAM: The Open Source CFD Toolbox           |
|  \\    /   O peration     | Version:  2106                                  |
|   \\  /    A nd           | Website:  www.openfoam.com                      |
|    \\/     M anipulation  |                                                 |
\*---------------------------------------------------------------------------*/
FoamFile
{
    version     2.0;
    format      ascii;
    arch        "LSB;label=32;scalar=64";
    class       surfaceScalarField;
    location    "0.02";
    object      phi;
}
// * * * * * * * * * * * * * * * * * * * * * * * * * * * * * * * * * * * * * //

dimensions      [0 3 -1 0 0 0 0];

oriented        oriented;

internalField   nonuniform List<scalar> 
19000
(
1.1684e-06
3.51491e-11
1.16836e-06
1.23385e-10
1.16831e-06
1.72125e-10
1.16825e-06
2.01772e-10
1.16819e-06
2.16618e-10
1.16811e-06
3.05618e-10
1.16807e-06
2.65053e-12
1.16778e-06
1.82779e-09
1.16843e-06
-6.13556e-09
1.16572e-06
2.39426e-08
1.17309e-06
-7.00129e-08
1.15543e-06
1.67166e-07
1.1876e-06
-3.09787e-07
1.14641e-06
3.7636e-07
1.17995e-06
-2.97653e-07
1.17689e-06
-6.03534e-08
1.15571e-06
2.59233e-07
1.14591e-06
-1.80494e-07
1.17229e-06
-1.05456e-07
5.92822e-08
1.13125e-06
1.22425e-06
4.93815e-11
1.22421e-06
1.63404e-10
1.22415e-06
2.2451e-10
1.22409e-06
2.62233e-10
1.22403e-06
2.82286e-10
1.22394e-06
3.92051e-10
1.2239e-06
4.68191e-11
1.22362e-06
2.10262e-09
1.22415e-06
-6.6616e-09
1.22202e-06
2.60718e-08
1.22735e-06
-7.53406e-08
1.21607e-06
1.78443e-07
1.23682e-06
-3.3054e-07
1.2203e-06
3.92882e-07
1.23203e-06
-3.09378e-07
1.24441e-06
-7.27361e-08
1.21015e-06
2.93492e-07
1.21388e-06
-1.84219e-07
1.21386e-06
-1.05442e-07
5.81684e-08
1.21498e-06
1.28277e-06
6.42584e-11
1.28273e-06
2.05276e-10
1.28267e-06
2.79361e-10
1.28261e-06
3.25505e-10
1.28254e-06
3.51309e-10
1.28245e-06
4.80767e-10
1.28239e-06
1.04019e-10
1.28217e-06
2.33125e-09
1.28244e-06
-6.93867e-09
1.28128e-06
2.7234e-08
1.28346e-06
-7.75219e-08
1.28034e-06
1.81562e-07
1.285e-06
-3.35202e-07
1.29022e-06
3.87661e-07
1.28091e-06
-3.00068e-07
1.29699e-06
-8.88107e-08
1.2811e-06
3.09384e-07
1.27492e-06
-1.78042e-07
1.27493e-06
-1.05458e-07
6.79169e-08
1.26519e-06
1.34409e-06
7.98109e-11
1.34404e-06
2.49081e-10
1.34399e-06
3.36788e-10
1.34392e-06
3.9172e-10
1.34385e-06
4.23791e-10
1.34376e-06
5.72266e-10
1.34369e-06
1.72019e-10
1.34349e-06
2.52857e-09
1.34359e-06
-7.04108e-09
1.34308e-06
2.77499e-08
1.34319e-06
-7.76295e-08
1.34491e-06
1.79835e-07
1.33949e-06
-3.29781e-07
1.3535e-06
3.73656e-07
1.33644e-06
-2.83011e-07
1.34613e-06
-9.85024e-08
1.34831e-06
3.07201e-07
1.33665e-06
-1.66382e-07
1.33249e-06
-1.01293e-07
7.65672e-08
1.32384e-06
1.40834e-06
9.60673e-11
1.40829e-06
2.94905e-10
1.40823e-06
3.96907e-10
1.40816e-06
4.61021e-10
1.40809e-06
4.99829e-10
1.40799e-06
6.67163e-10
1.40792e-06
2.4798e-10
1.40773e-06
2.71232e-09
1.40774e-06
-7.05344e-09
1.40753e-06
2.79596e-08
1.40667e-06
-7.67684e-08
1.41047e-06
1.76043e-07
1.40062e-06
-3.19936e-07
1.41715e-06
3.57126e-07
1.39875e-06
-2.6461e-07
1.40313e-06
-1.02883e-07
1.41209e-06
2.98245e-07
1.40111e-06
-1.55408e-07
1.39194e-06
-9.21235e-08
8.36106e-08
1.3849e-06
1.47566e-06
1.13057e-10
1.47561e-06
3.42836e-10
1.47555e-06
4.59841e-10
1.47548e-06
5.33552e-10
1.4754e-06
5.79552e-10
1.4753e-06
7.65876e-10
1.47521e-06
3.30486e-10
1.47504e-06
2.89198e-09
1.475e-06
-7.01955e-09
1.47493e-06
2.80347e-08
1.47365e-06
-7.549e-08
1.47826e-06
1.71432e-07
1.46671e-06
-3.08385e-07
1.48406e-06
3.39777e-07
1.46553e-06
-2.46087e-07
1.46774e-06
-1.05091e-07
1.47798e-06
2.88008e-07
1.46814e-06
-1.4557e-07
1.4572e-06
-8.11819e-08
9.11293e-08
1.44968e-06
1.5462e-06
1.30812e-10
1.54615e-06
3.9297e-10
1.54608e-06
5.25719e-10
1.54601e-06
6.09462e-10
1.54592e-06
6.6312e-10
1.54582e-06
8.68657e-10
1.54573e-06
4.19255e-10
1.54555e-06
3.07074e-09
1.54549e-06
-6.95347e-09
1.54549e-06
2.80314e-08
1.54398e-06
-7.39756e-08
1.54902e-06
1.66387e-07
1.53666e-06
-2.96027e-07
1.55452e-06
3.21918e-07
1.53581e-06
-2.27375e-07
1.53747e-06
-1.06747e-07
1.54772e-06
2.77758e-07
1.53791e-06
-1.35763e-07
1.52754e-06
-7.08084e-08
9.94805e-08
1.51918e-06
1.62011e-06
1.49365e-10
1.62006e-06
4.45404e-10
1.61999e-06
5.94676e-10
1.61991e-06
6.88903e-10
1.61982e-06
7.50707e-10
1.61971e-06
9.75696e-10
1.61962e-06
5.14484e-10
1.61944e-06
3.24921e-09
1.61935e-06
-6.85748e-09
1.61941e-06
2.79616e-08
1.61771e-06
-7.22672e-08
1.62309e-06
1.61004e-07
1.61017e-06
-2.83104e-07
1.62846e-06
3.03625e-07
1.60951e-06
-2.08426e-07
1.61105e-06
-1.08287e-07
1.62126e-06
2.67553e-07
1.61081e-06
-1.25318e-07
1.60186e-06
-6.18549e-08
1.08223e-07
1.59311e-06
1.69755e-06
1.68748e-10
1.6975e-06
5.00243e-10
1.69743e-06
6.66852e-10
1.69734e-06
7.72038e-10
1.69725e-06
8.42501e-10
1.69714e-06
1.08717e-09
1.69704e-06
6.16515e-10
1.69686e-06
3.42734e-09
1.69673e-06
-6.73071e-09
1.69687e-06
2.78261e-08
1.69497e-06
-7.03715e-08
1.70067e-06
1.55308e-07
1.68726e-06
-2.69692e-07
1.70591e-06
2.84975e-07
1.68679e-06
-1.89313e-07
1.68821e-06
-1.09706e-07
1.69849e-06
2.57278e-07
1.68719e-06
-1.14015e-07
1.67978e-06
-5.44534e-08
1.16882e-07
1.67113e-06
1.7787e-06
1.89e-10
1.77864e-06
5.57594e-10
1.77857e-06
7.42395e-10
1.77848e-06
8.59032e-10
1.77839e-06
9.38697e-10
1.77827e-06
1.20325e-09
1.77816e-06
7.25728e-10
1.77798e-06
3.60494e-09
1.77782e-06
-6.57176e-09
1.77803e-06
2.76237e-08
1.77594e-06
-6.82897e-08
1.78193e-06
1.49319e-07
1.76809e-06
-2.55845e-07
1.787e-06
2.66066e-07
1.76785e-06
-1.70165e-07
1.76902e-06
-1.10884e-07
1.77948e-06
2.46823e-07
1.76729e-06
-1.01828e-07
1.76132e-06
-4.84849e-08
1.25064e-07
1.75314e-06
1.86373e-06
2.10156e-10
1.86367e-06
6.1757e-10
1.86359e-06
8.21459e-10
1.8635e-06
9.5006e-10
1.8634e-06
1.0395e-09
1.86328e-06
1.32412e-09
1.86316e-06
8.42521e-10
1.86298e-06
3.78183e-09
1.86279e-06
-6.37922e-09
1.86306e-06
2.73536e-08
1.86079e-06
-6.60235e-08
1.86706e-06
1.43056e-07
1.85283e-06
-2.41618e-07
1.87189e-06
2.47007e-07
1.85285e-06
-1.51128e-07
1.85364e-06
-1.11676e-07
1.86437e-06
2.36095e-07
1.85135e-06
-8.88109e-08
1.84661e-06
-4.37428e-08
1.32415e-07
1.83926e-06
1.95282e-06
2.32256e-10
1.95275e-06
6.80292e-10
1.95267e-06
9.04202e-10
1.95258e-06
1.0453e-09
1.95247e-06
1.14512e-09
1.95235e-06
1.44998e-09
1.95222e-06
9.67303e-10
1.95204e-06
3.95785e-09
1.95182e-06
-6.15181e-09
1.95215e-06
2.70157e-08
1.94971e-06
-6.35767e-08
1.95622e-06
1.36545e-07
1.94168e-06
-2.27076e-07
1.96076e-06
2.27921e-07
1.942e-06
-1.32364e-07
1.94226e-06
-1.11934e-07
1.95333e-06
2.2502e-07
1.93959e-06
-7.50672e-08
1.93582e-06
-3.99728e-08
1.38608e-07
1.92962e-06
2.04617e-06
2.55343e-10
2.0461e-06
7.45881e-10
2.04601e-06
9.90793e-10
2.04591e-06
1.14495e-09
2.0458e-06
1.25578e-09
2.04567e-06
1.58102e-09
2.04554e-06
1.10049e-09
2.04536e-06
4.13289e-09
2.0451e-06
-5.8884e-09
2.04551e-06
2.66106e-08
2.04288e-06
-6.09548e-08
2.04961e-06
1.29818e-07
2.03483e-06
-2.12293e-07
2.05381e-06
2.0894e-07
2.03548e-06
-1.14037e-07
2.03506e-06
-1.11516e-07
2.04654e-06
2.13548e-07
2.03222e-06
-6.07485e-08
2.02914e-06
-3.68903e-08
1.4335e-07
2.02439e-06
2.14398e-06
2.79459e-10
2.14391e-06
8.14469e-10
2.14382e-06
1.0814e-09
2.14371e-06
1.24921e-09
2.1436e-06
1.37172e-09
2.14346e-06
1.71746e-09
2.14332e-06
1.24251e-09
2.14315e-06
4.3069e-09
2.14284e-06
-5.58808e-09
2.14332e-06
2.61398e-08
2.14053e-06
-5.81661e-08
2.14744e-06
1.22909e-07
2.13249e-06
-1.9735e-07
2.15123e-06
1.90208e-07
2.13351e-06
-9.63164e-08
2.13228e-06
-1.10292e-07
2.14417e-06
2.01656e-07
2.12947e-06
-4.60504e-08
2.12678e-06
-3.41915e-08
1.46404e-07
2.12372e-06
2.24646e-06
3.04648e-10
2.24639e-06
8.86189e-10
2.2463e-06
1.17622e-09
2.24619e-06
1.35826e-09
2.24607e-06
1.49316e-09
2.24592e-06
1.85951e-09
2.24577e-06
1.39378e-09
2.2456e-06
4.47988e-09
2.24526e-06
-5.25017e-09
2.2458e-06
2.56056e-08
2.24285e-06
-5.52211e-08
2.2499e-06
1.1586e-07
2.23489e-06
-1.82337e-07
2.25323e-06
1.7187e-07
2.23628e-06
-7.93677e-08
2.23414e-06
-1.08151e-07
2.24643e-06
1.89363e-07
2.23159e-06
-3.1208e-08
2.22897e-06
-3.15743e-08
1.47611e-07
2.22776e-06
2.35385e-06
3.30959e-10
2.35377e-06
9.61182e-10
2.35367e-06
1.27542e-09
2.35356e-06
1.47234e-09
2.35343e-06
1.62036e-09
2.35329e-06
2.0074e-09
2.35312e-06
1.55474e-09
2.35295e-06
4.65192e-09
2.35258e-06
-4.87426e-09
2.35317e-06
2.50116e-08
2.35008e-06
-5.21326e-08
2.35723e-06
1.08715e-07
2.34224e-06
-1.6735e-07
2.36003e-06
1.54076e-07
2.34401e-06
-6.33472e-08
2.34087e-06
-1.05011e-07
2.35351e-06
1.76726e-07
2.33879e-06
-1.64896e-08
2.33597e-06
-2.87559e-08
1.46911e-07
2.33667e-06
2.46637e-06
3.58441e-10
2.46629e-06
1.0396e-09
2.46619e-06
1.37921e-09
2.46607e-06
1.59165e-09
2.46593e-06
1.75358e-09
2.46578e-06
2.16137e-09
2.46561e-06
1.72581e-09
2.46544e-06
4.82321e-09
2.46502e-06
-4.46025e-09
2.46567e-06
2.43623e-08
2.46246e-06
-4.89161e-08
2.46965e-06
1.01525e-07
2.45478e-06
-1.52486e-07
2.47188e-06
1.36976e-07
2.45693e-06
-4.83988e-08
2.45275e-06
-1.00823e-07
2.46563e-06
1.63842e-07
2.45132e-06
-2.18432e-09
2.44806e-06
-2.54869e-08
1.44348e-07
2.45062e-06
2.58427e-06
3.87144e-10
2.58418e-06
1.12158e-09
2.58407e-06
1.48778e-09
2.58395e-06
1.71643e-09
2.58381e-06
1.89308e-09
2.58365e-06
2.32167e-09
2.58347e-06
1.90739e-09
2.5833e-06
4.99403e-09
2.58285e-06
-4.00838e-09
2.58355e-06
2.36634e-08
2.58022e-06
-4.55894e-08
2.5874e-06
9.43425e-08
2.57276e-06
-1.37849e-07
2.58903e-06
1.20711e-07
2.57527e-06
-3.46446e-08
2.57003e-06
-9.55773e-08
2.58303e-06
1.50846e-07
2.56942e-06
1.14192e-08
2.56551e-06
-2.15716e-08
1.40073e-07
2.56978e-06
2.7078e-06
4.17122e-10
2.70771e-06
1.2073e-09
2.7076e-06
1.60135e-09
2.70747e-06
1.84691e-09
2.70732e-06
2.03914e-09
2.70716e-06
2.48855e-09
2.70696e-06
2.0999e-09
2.70679e-06
5.16478e-09
2.7063e-06
-3.51925e-09
2.70705e-06
2.29216e-08
2.70363e-06
-4.21725e-08
2.71075e-06
8.72235e-08
2.69644e-06
-1.2354e-07
2.71173e-06
1.05417e-07
2.69927e-06
-2.21825e-08
2.693e-06
-8.93092e-08
2.70595e-06
1.37901e-07
2.69332e-06
2.4047e-08
2.68864e-06
-1.6887e-08
1.34336e-07
2.69437e-06
2.83724e-06
4.48429e-10
2.83715e-06
1.2969e-09
2.83703e-06
1.72014e-09
2.83689e-06
1.98334e-09
2.83674e-06
2.19203e-09
2.83657e-06
2.6623e-09
2.83636e-06
2.30373e-09
2.83619e-06
5.336e-09
2.83567e-06
-2.99385e-09
2.83644e-06
2.21451e-08
2.83296e-06
-3.86873e-08
2.83995e-06
8.02259e-08
2.82607e-06
-1.09661e-07
2.84028e-06
9.12136e-08
2.82918e-06
-1.10813e-08
2.82196e-06
-8.20952e-08
2.83467e-06
1.25197e-07
2.82326e-06
3.54502e-08
2.81776e-06
-1.13853e-08
1.27463e-07
2.82463e-06
2.97286e-06
4.81123e-10
2.97277e-06
1.39057e-09
2.97265e-06
1.84435e-09
2.9725e-06
2.12595e-09
2.97234e-06
2.35203e-09
2.97216e-06
2.84319e-09
2.97195e-06
2.51922e-09
2.97177e-06
5.50835e-09
2.97121e-06
-2.43357e-09
2.97202e-06
2.13428e-08
2.96849e-06
-3.51576e-08
2.9753e-06
7.34081e-08
2.96195e-06
-9.63047e-08
2.97496e-06
7.82019e-08
2.96526e-06
-1.37697e-09
2.95721e-06
-7.40543e-08
2.96948e-06
1.12936e-07
2.95949e-06
4.54385e-08
2.95323e-06
-5.1259e-09
1.1984e-07
2.96085e-06
3.11497e-06
5.15261e-10
3.11487e-06
1.48847e-09
3.11474e-06
1.97423e-09
3.1146e-06
2.27502e-09
3.11443e-06
2.51945e-09
3.11424e-06
3.03154e-09
3.11401e-06
2.74672e-09
3.11384e-06
5.68266e-09
3.11324e-06
-1.84018e-09
3.11406e-06
2.05247e-08
3.11051e-06
-3.16084e-08
3.11709e-06
6.68279e-08
3.10435e-06
-8.35602e-08
3.11609e-06
6.64621e-08
3.10778e-06
6.92939e-09
3.09907e-06
-6.53419e-08
3.11069e-06
1.0132e-07
3.10226e-06
5.38677e-08
3.09536e-06
1.76906e-09
1.11866e-07
3.10334e-06
3.26387e-06
5.50906e-10
3.26377e-06
1.59078e-09
3.26364e-06
2.11001e-09
3.26348e-06
2.43079e-09
3.26331e-06
2.69457e-09
3.26311e-06
3.22765e-09
3.26287e-06
2.98652e-09
3.26269e-06
5.8599e-09
3.26207e-06
-1.21584e-09
3.26289e-06
1.97015e-08
3.25935e-06
-2.80651e-08
3.26563e-06
6.05406e-08
3.25358e-06
-7.15046e-08
3.26399e-06
5.60478e-08
3.25705e-06
1.38722e-08
3.24785e-06
-5.61395e-08
3.25863e-06
9.05337e-08
3.25184e-06
6.06654e-08
3.2445e-06
9.11097e-09
1.03925e-07
3.25244e-06
3.41989e-06
5.88118e-10
3.41979e-06
1.69769e-09
3.41965e-06
2.25192e-09
3.41948e-06
2.59355e-09
3.4193e-06
2.8777e-09
3.4191e-06
3.43185e-09
3.41884e-06
3.23891e-09
3.41866e-06
6.04118e-09
3.41801e-06
-5.63092e-10
3.41883e-06
1.8885e-08
3.41531e-06
-2.45536e-08
3.42126e-06
5.45984e-08
3.40995e-06
-6.02026e-08
3.41902e-06
4.69832e-08
3.41337e-06
1.95249e-08
3.40388e-06
-4.66514e-08
3.41368e-06
8.07342e-08
3.40851e-06
6.5829e-08
3.40096e-06
1.66647e-08
9.63568e-08
3.40853e-06
3.58337e-06
6.26962e-10
3.58326e-06
1.80937e-09
3.58311e-06
2.40021e-09
3.58294e-06
2.76355e-09
3.58275e-06
3.06914e-09
3.58254e-06
3.64448e-09
3.58227e-06
3.50409e-09
3.58209e-06
6.22776e-09
3.58141e-06
1.1523e-10
3.58221e-06
1.80869e-08
3.57875e-06
-2.10994e-08
3.5843e-06
4.90478e-08
3.5738e-06
-4.97049e-08
3.58152e-06
3.92671e-08
3.57706e-06
2.39843e-08
3.5675e-06
-3.7088e-08
3.57619e-06
7.20432e-08
3.57259e-06
6.94256e-08
3.56509e-06
2.41696e-08
8.94361e-08
3.57201e-06
3.75466e-06
6.67501e-10
3.75455e-06
1.92603e-09
3.75439e-06
2.55513e-09
3.75422e-06
2.94108e-09
3.75402e-06
3.26918e-09
3.75379e-06
3.8659e-09
3.75352e-06
3.78225e-09
3.75332e-06
6.42106e-09
3.75262e-06
8.16011e-10
3.75339e-06
1.73194e-08
3.75002e-06
-1.77266e-08
3.75514e-06
4.39292e-08
3.74548e-06
-4.00465e-08
3.75188e-06
3.28686e-08
3.74849e-06
2.73741e-08
3.73905e-06
-2.76571e-08
3.74656e-06
6.45397e-08
3.7444e-06
7.15791e-08
3.73721e-06
3.13662e-08
8.33531e-08
3.74329e-06
3.93415e-06
7.09803e-10
3.93402e-06
2.04784e-09
3.93386e-06
2.71692e-09
3.93368e-06
3.12641e-09
3.93347e-06
3.47813e-09
3.93324e-06
4.09645e-09
3.93295e-06
4.07353e-09
3.93274e-06
6.62258e-09
3.93202e-06
1.53593e-09
3.93275e-06
1.65945e-08
3.92948e-06
-1.44577e-08
3.93413e-06
3.92753e-08
3.92533e-06
-3.12455e-08
3.93047e-06
2.77301e-08
3.92801e-06
2.98354e-08
3.91891e-06
-1.85515e-08
3.92519e-06
5.82538e-08
3.92431e-06
7.24605e-08
3.91766e-06
3.80173e-08
7.82081e-08
3.9228e-06
4.12221e-06
7.53934e-10
4.12208e-06
2.17502e-09
4.12191e-06
2.88585e-09
4.12172e-06
3.31982e-09
4.1215e-06
3.69627e-09
4.12126e-06
4.33652e-09
4.12095e-06
4.37801e-09
4.12074e-06
6.83393e-09
4.12001e-06
2.27156e-09
4.12068e-06
1.59238e-08
4.11753e-06
-1.13127e-08
4.1217e-06
3.51097e-08
4.11376e-06
-2.33026e-08
4.11772e-06
2.37693e-08
4.11603e-06
3.15199e-08
4.10742e-06
-9.94213e-09
4.11251e-06
5.3167e-08
4.11269e-06
7.2275e-08
4.10679e-06
4.39258e-08
7.4014e-08
4.11098e-06
4.31926e-06
7.9996e-10
4.31912e-06
2.30774e-09
4.31895e-06
3.06215e-09
4.31875e-06
3.52159e-09
4.31852e-06
3.92389e-09
4.31827e-06
4.58646e-09
4.31795e-06
4.69574e-09
4.31773e-06
7.05678e-09
4.31698e-06
3.01942e-09
4.31759e-06
1.53182e-08
4.31458e-06
-8.30893e-09
4.31824e-06
3.14461e-08
4.31114e-06
-1.62014e-08
4.31403e-06
2.08857e-08
4.31297e-06
3.25751e-08
4.30499e-06
-1.96074e-09
4.30895e-06
4.92115e-08
4.30998e-06
7.12455e-08
4.30495e-06
4.89478e-08
7.07069e-08
4.30826e-06
4.52573e-06
8.47949e-10
4.52559e-06
2.4462e-09
4.5254e-06
3.24607e-09
4.52519e-06
3.73198e-09
4.52496e-06
4.16127e-09
4.5247e-06
4.84667e-09
4.52436e-06
5.0267e-09
4.52413e-06
7.29283e-09
4.52337e-06
3.77607e-09
4.5239e-06
1.47875e-08
4.52105e-06
-5.46005e-09
4.52421e-06
2.82881e-08
4.51792e-06
-9.9093e-09
4.51985e-06
1.89595e-08
4.51927e-06
3.31511e-08
4.51202e-06
5.28839e-09
4.51495e-06
4.62843e-08
4.5166e-06
6.9595e-08
4.51255e-06
5.29988e-08
6.8164e-08
4.51509e-06
4.74206e-06
8.97968e-10
4.74192e-06
2.59059e-09
4.74173e-06
3.43787e-09
4.74151e-06
3.95127e-09
4.74126e-06
4.40867e-09
4.74099e-06
5.11749e-09
4.74065e-06
5.37085e-09
4.7404e-06
7.54378e-09
4.73963e-06
4.53826e-09
4.74008e-06
1.43402e-08
4.7374e-06
-2.77621e-09
4.74006e-06
2.56303e-08
4.73453e-06
-4.38287e-09
4.73563e-06
1.78622e-08
4.73539e-06
3.33844e-08
4.72894e-06
1.17424e-08
4.73097e-06
4.42508e-08
4.73303e-06
6.75327e-08
4.72998e-06
5.60548e-08
6.6225e-08
4.73192e-06
4.96875e-06
9.50082e-10
4.9686e-06
2.7411e-09
4.9684e-06
3.63777e-09
4.96817e-06
4.17971e-09
4.96791e-06
4.66633e-09
4.96763e-06
5.39928e-09
4.96727e-06
5.72807e-09
4.967e-06
7.81122e-09
4.96624e-06
5.30293e-09
4.9666e-06
1.39831e-08
4.96408e-06
-2.63542e-10
4.96626e-06
2.34569e-08
4.96144e-06
4.33213e-10
4.96184e-06
1.74603e-08
4.96183e-06
3.33965e-08
4.9562e-06
1.73715e-08
4.95749e-06
4.29599e-08
4.95978e-06
6.52419e-08
4.95769e-06
5.81465e-08
6.4714e-08
4.9592e-06
5.20626e-06
1.00435e-09
5.20611e-06
2.89791e-09
5.2059e-06
3.846e-09
5.20566e-06
4.41754e-09
5.20539e-06
4.93447e-09
5.2051e-06
5.69237e-09
5.20473e-06
6.09823e-09
5.20444e-06
8.09669e-09
5.20368e-06
6.06733e-09
5.20394e-06
1.37211e-08
5.2016e-06
2.07563e-09
5.20331e-06
2.17441e-08
5.19915e-06
4.60111e-09
5.19899e-06
1.7621e-08
5.19909e-06
3.32888e-08
5.19429e-06
2.2179e-08
5.19499e-06
4.22529e-08
5.19736e-06
6.28721e-08
5.19616e-06
5.93495e-08
6.34602e-08
5.19741e-06
5.45513e-06
1.06085e-09
5.45497e-06
3.06119e-09
5.45475e-06
4.06277e-09
5.45451e-06
4.66499e-09
5.45423e-06
5.21327e-09
5.45392e-06
5.99705e-09
5.45354e-06
6.48114e-09
5.45323e-06
8.4015e-09
5.45247e-06
6.82908e-09
5.45264e-06
1.35572e-08
5.45047e-06
4.2426e-09
5.45175e-06
2.04605e-08
5.44817e-06
8.18705e-09
5.44757e-06
1.82173e-08
5.44772e-06
3.31406e-08
5.4437e-06
2.61963e-08
5.44398e-06
4.19737e-08
5.44632e-06
6.0536e-08
5.44589e-06
5.97714e-08
6.23136e-08
5.44704e-06
5.7159e-06
1.11962e-09
5.71573e-06
3.23109e-09
5.7155e-06
4.28827e-09
5.71525e-06
4.92224e-09
5.71496e-06
5.5029e-09
5.71464e-06
6.3136e-09
5.71425e-06
6.87656e-09
5.71392e-06
8.72679e-09
5.71316e-06
7.58618e-09
5.71323e-06
1.34924e-08
5.71123e-06
6.24192e-09
5.71212e-06
1.95685e-08
5.70905e-06
1.12597e-08
5.70813e-06
1.9131e-08
5.70827e-06
3.30088e-08
5.70499e-06
2.9477e-08
5.70498e-06
4.19776e-08
5.70721e-06
5.8309e-08
5.70744e-06
5.95379e-08
6.11557e-08
5.7086e-06
5.98913e-06
1.18072e-09
5.98895e-06
3.40776e-09
5.98872e-06
4.52266e-09
5.98845e-06
5.18947e-09
5.98815e-06
5.80346e-09
5.98782e-06
6.6422e-09
5.98742e-06
7.2842e-09
5.98707e-06
9.0734e-09
5.98632e-06
8.33703e-09
5.98629e-06
1.35254e-08
5.98445e-06
8.08088e-09
5.98499e-06
1.90255e-08
5.98236e-06
1.38869e-08
5.98124e-06
2.02559e-08
5.98132e-06
3.29291e-08
5.97871e-06
3.20896e-08
5.97854e-06
4.21379e-08
5.98062e-06
5.62328e-08
5.98138e-06
5.87799e-08
5.99038e-08
5.98263e-06
6.27542e-06
1.2442e-09
6.27524e-06
3.59132e-09
6.275e-06
4.7661e-09
6.27472e-06
5.46682e-09
6.27441e-06
6.11503e-09
6.27407e-06
6.98298e-09
6.27365e-06
7.70374e-09
6.27328e-06
9.44186e-09
6.27254e-06
9.0804e-09
6.27241e-06
1.3653e-08
6.27072e-06
9.76893e-09
6.27096e-06
1.87861e-08
6.26871e-06
1.61328e-08
6.26747e-06
2.15004e-08
6.26748e-06
3.29181e-08
6.26546e-06
3.41117e-08
6.26525e-06
4.23498e-08
6.26716e-06
5.43211e-08
6.26832e-06
5.76232e-08
5.85108e-08
6.26971e-06
6.5754e-06
1.31009e-09
6.57521e-06
3.78186e-09
6.57496e-06
5.01867e-09
6.57467e-06
5.75435e-09
6.57435e-06
6.4376e-09
6.574e-06
7.33599e-09
6.57357e-06
8.13475e-09
6.57318e-06
9.83231e-09
6.57244e-06
9.8154e-09
6.57222e-06
1.387e-08
6.57068e-06
1.1317e-08
6.57066e-06
1.88034e-08
6.56874e-06
1.80562e-08
6.56745e-06
2.2788e-08
6.56739e-06
3.29769e-08
6.56588e-06
3.56231e-08
6.5657e-06
4.25319e-08
6.56745e-06
5.25664e-08
6.56889e-06
5.61797e-08
5.69598e-08
6.57044e-06
6.88972e-06
1.37844e-09
6.88952e-06
3.97946e-09
6.88926e-06
5.28044e-09
6.88896e-06
6.05211e-09
6.88863e-06
6.77111e-09
6.88827e-06
7.70117e-09
6.88782e-06
8.57676e-09
6.88741e-06
1.02445e-08
6.88669e-06
1.05414e-08
6.88639e-06
1.41694e-08
6.88497e-06
1.27367e-08
6.88474e-06
1.90308e-08
6.88309e-06
1.9709e-08
6.88182e-06
2.40576e-08
6.8817e-06
3.30945e-08
6.88062e-06
3.67016e-08
6.88053e-06
4.26257e-08
6.88215e-06
5.09476e-08
6.88378e-06
5.45438e-08
5.5258e-08
6.88548e-06
7.21907e-06
1.44925e-09
7.21886e-06
4.18414e-09
7.21859e-06
5.55142e-09
7.21828e-06
6.36004e-09
7.21794e-06
7.11542e-09
7.21756e-06
8.07834e-09
7.21711e-06
9.02918e-09
7.21667e-06
1.06778e-08
7.21596e-06
1.12578e-08
7.21558e-06
1.45427e-08
7.21428e-06
1.40398e-08
7.21389e-06
1.94231e-08
7.21246e-06
2.11353e-08
7.21126e-06
2.52624e-08
7.2111e-06
3.32519e-08
7.21038e-06
3.74185e-08
7.21042e-06
4.25936e-08
7.21193e-06
4.94363e-08
7.21368e-06
5.27899e-08
5.34284e-08
7.21551e-06
7.56415e-06
1.52253e-09
7.56394e-06
4.3959e-09
7.56366e-06
5.83156e-09
7.56334e-06
6.67804e-09
7.56299e-06
7.47026e-09
7.5626e-06
8.46715e-09
7.56214e-06
9.49129e-09
7.56168e-06
1.1131e-08
7.56098e-06
1.19641e-08
7.56054e-06
1.49803e-08
7.55934e-06
1.52374e-08
7.55883e-06
1.99378e-08
7.55759e-06
2.23712e-08
7.55649e-06
2.63686e-08
7.55631e-06
3.34256e-08
7.55589e-06
3.78369e-08
7.55607e-06
4.24156e-08
7.55751e-06
4.80022e-08
7.55932e-06
5.09736e-08
5.15025e-08
7.56125e-06
7.92574e-06
1.59827e-09
7.92552e-06
4.61466e-09
7.92523e-06
6.12072e-09
7.9249e-06
7.00589e-09
7.92453e-06
7.83529e-09
7.92413e-06
8.86712e-09
7.92366e-06
9.96225e-09
7.92319e-06
1.16024e-08
7.9225e-06
1.26599e-08
7.92201e-06
1.54714e-08
7.9209e-06
1.63395e-08
7.92031e-06
2.0536e-08
7.91923e-06
2.34451e-08
7.91825e-06
2.73533e-08
7.91808e-06
3.35908e-08
7.91791e-06
3.801e-08
7.91824e-06
4.20855e-08
7.91962e-06
4.6617e-08
7.92146e-06
4.91338e-08
4.95144e-08
7.92345e-06
8.3046e-06
1.67644e-09
8.30438e-06
4.84031e-09
8.30408e-06
6.41869e-09
8.30374e-06
7.34328e-09
8.30337e-06
8.21002e-09
8.30296e-06
9.27755e-09
8.30248e-06
1.0441e-08
8.30199e-06
1.209e-08
8.30131e-06
1.33441e-08
8.30077e-06
1.60049e-08
8.29976e-06
1.73546e-08
8.29911e-06
2.11827e-08
8.29818e-06
2.43782e-08
8.29733e-06
2.82028e-08
8.2972e-06
3.3724e-08
8.29722e-06
3.79816e-08
8.2977e-06
4.16074e-08
8.29906e-06
4.52572e-08
8.3009e-06
4.7296e-08
4.7496e-08
8.30292e-06
8.70158e-06
1.75699e-09
8.70135e-06
5.07264e-09
8.70104e-06
6.72515e-09
8.7007e-06
7.68976e-09
8.70031e-06
8.5938e-09
8.69989e-06
9.69754e-09
8.69941e-06
1.09263e-08
8.69891e-06
1.2591e-08
8.69823e-06
1.40157e-08
8.69767e-06
1.65688e-08
8.69674e-06
1.82894e-08
8.69607e-06
2.18474e-08
8.69526e-06
2.51857e-08
8.69456e-06
2.89105e-08
8.69448e-06
3.38043e-08
8.69467e-06
3.77864e-08
8.69529e-06
4.09922e-08
8.69664e-06
4.39048e-08
8.69846e-06
4.54758e-08
4.54751e-08
8.70048e-06
9.11754e-06
1.83983e-09
9.1173e-06
5.31139e-09
9.11698e-06
7.03969e-09
9.11663e-06
8.04475e-09
9.11624e-06
8.98583e-09
9.11581e-06
1.01259e-08
9.11532e-06
1.14165e-08
9.11481e-06
1.31024e-08
9.11415e-06
1.4673e-08
9.11357e-06
1.71516e-08
9.11271e-06
1.91489e-08
9.11205e-06
2.25041e-08
9.11136e-06
2.58777e-08
9.11079e-06
2.94746e-08
9.11078e-06
3.38151e-08
9.11112e-06
3.74513e-08
9.11186e-06
4.02544e-08
9.11321e-06
4.25477e-08
9.11501e-06
4.36817e-08
4.34734e-08
9.11701e-06
9.55337e-06
1.92487e-09
9.55313e-06
5.55618e-09
9.55281e-06
7.36174e-09
9.55245e-06
8.4075e-09
9.55205e-06
9.38508e-09
9.55161e-06
1.05613e-08
9.55112e-06
1.19098e-08
9.5506e-06
1.36206e-08
9.54996e-06
1.53137e-08
9.54937e-06
1.77413e-08
9.54858e-06
1.9936e-08
9.54795e-06
2.31308e-08
9.54737e-06
2.64602e-08
9.54695e-06
2.98974e-08
9.54702e-06
3.37439e-08
9.54748e-06
3.69971e-08
9.54832e-06
3.94103e-08
9.54969e-06
4.11795e-08
9.55145e-06
4.19183e-08
4.1507e-08
9.55342e-06
1.001e-05
2.01195e-09
1.00098e-05
5.80652e-09
1.00095e-05
7.69058e-09
1.00091e-05
8.77708e-09
1.00087e-05
9.79032e-09
1.00083e-05
1.10019e-08
1.00078e-05
1.24042e-08
1.00072e-05
1.41414e-08
1.00066e-05
1.59351e-08
1.0006e-05
1.83267e-08
1.00053e-05
2.0652e-08
1.00047e-05
2.37096e-08
1.00043e-05
2.69368e-08
1.0004e-05
3.01831e-08
1.00041e-05
3.35828e-08
1.00047e-05
3.64396e-08
1.00056e-05
3.84762e-08
1.0007e-05
3.97979e-08
1.00087e-05
4.01877e-08
3.95872e-08
1.00107e-05
1.04886e-05
2.10088e-09
1.04883e-05
6.06182e-09
1.0488e-05
8.02534e-09
1.04876e-05
9.15233e-09
1.04872e-05
1.02001e-08
1.04867e-05
1.14458e-08
1.04862e-05
1.28969e-08
1.04857e-05
1.46604e-08
1.04851e-05
1.65337e-08
1.04846e-05
1.88967e-08
1.04839e-05
2.12967e-08
1.04834e-05
2.42264e-08
1.0483e-05
2.73091e-08
1.04829e-05
3.03377e-08
1.04831e-05
3.33279e-08
1.04838e-05
3.57914e-08
1.04848e-05
3.74674e-08
1.04862e-05
3.84039e-08
1.04879e-05
3.84908e-08
3.77209e-08
1.04897e-05
1.09899e-05
2.19143e-09
1.09897e-05
6.32131e-09
1.09893e-05
8.36491e-09
1.09889e-05
9.53188e-09
1.09885e-05
1.06126e-08
1.09881e-05
1.18905e-08
1.09876e-05
1.3385e-08
1.09871e-05
1.51725e-08
1.09865e-05
1.71057e-08
1.0986e-05
1.9441e-08
1.09854e-05
2.18689e-08
1.0985e-05
2.46701e-08
1.09847e-05
2.75779e-08
1.09847e-05
3.03678e-08
1.0985e-05
3.29786e-08
1.09857e-05
3.50628e-08
1.09868e-05
3.63977e-08
1.09882e-05
3.70007e-08
1.09899e-05
3.68284e-08
3.59123e-08
1.09917e-05
1.15153e-05
2.28331e-09
1.1515e-05
6.5841e-09
1.15147e-05
8.70802e-09
1.15143e-05
9.91407e-09
1.15139e-05
1.10257e-08
1.15134e-05
1.23333e-08
1.15129e-05
1.38651e-08
1.15124e-05
1.56727e-08
1.15119e-05
1.76463e-08
1.15114e-05
1.995e-08
1.15109e-05
2.23664e-08
1.15105e-05
2.50323e-08
1.15104e-05
2.77437e-08
1.15105e-05
3.02801e-08
1.15109e-05
3.25371e-08
1.15117e-05
3.42626e-08
1.15128e-05
3.52794e-08
1.15142e-05
3.55928e-08
1.15159e-05
3.52015e-08
3.41633e-08
1.15176e-05
1.20657e-05
2.37618e-09
1.20655e-05
6.84909e-09
1.20651e-05
9.0531e-09
1.20647e-05
1.0297e-08
1.20643e-05
1.14372e-08
1.20639e-05
1.27711e-08
1.20634e-05
1.43335e-08
1.20629e-05
1.61551e-08
1.20624e-05
1.81508e-08
1.2062e-05
2.04147e-08
1.20615e-05
2.27864e-08
1.20613e-05
2.53071e-08
1.20612e-05
2.78073e-08
1.20614e-05
3.00819e-08
1.20619e-05
3.20075e-08
1.20628e-05
3.33989e-08
1.2064e-05
3.41229e-08
1.20654e-05
3.41852e-08
1.2067e-05
3.36108e-08
3.24744e-08
1.20686e-05
1.26425e-05
2.46962e-09
1.26422e-05
7.11499e-09
1.26419e-05
9.39834e-09
1.26415e-05
1.06784e-08
1.26411e-05
1.18441e-08
1.26407e-05
1.32003e-08
1.26402e-05
1.47859e-08
1.26398e-05
1.6614e-08
1.26393e-05
1.86138e-08
1.26389e-05
2.0827e-08
1.26385e-05
2.31262e-08
1.26384e-05
2.54905e-08
1.26384e-05
2.777e-08
1.26387e-05
2.97801e-08
1.26393e-05
3.13954e-08
1.26402e-05
3.24791e-08
1.26414e-05
3.29375e-08
1.26428e-05
3.2783e-08
1.26444e-05
3.20576e-08
3.08451e-08
1.2646e-05
1.32468e-05
2.56312e-09
1.32466e-05
7.38027e-09
1.32462e-05
9.74162e-09
1.32459e-05
1.10556e-08
1.32455e-05
1.22434e-08
1.3245e-05
1.36171e-08
1.32446e-05
1.52176e-08
1.32442e-05
1.70432e-08
1.32438e-05
1.90298e-08
1.32434e-05
2.11797e-08
1.32432e-05
2.3383e-08
1.32431e-05
2.55801e-08
1.32432e-05
2.7634e-08
1.32436e-05
2.93818e-08
1.32443e-05
3.07074e-08
1.32453e-05
3.15105e-08
1.32465e-05
3.1731e-08
1.32479e-05
3.13908e-08
1.32494e-05
3.05427e-08
2.92745e-08
1.32509e-05
1.38801e-05
2.65612e-09
1.38798e-05
7.64318e-09
1.38795e-05
1.00805e-08
1.38791e-05
1.14258e-08
1.38787e-05
1.26316e-08
1.38783e-05
1.40171e-08
1.38779e-05
1.56237e-08
1.38775e-05
1.74368e-08
1.38771e-05
1.93933e-08
1.38769e-05
2.14664e-08
1.38767e-05
2.35544e-08
1.38767e-05
2.55752e-08
1.38769e-05
2.74019e-08
1.38774e-05
2.8894e-08
1.38782e-05
2.99505e-08
1.38792e-05
3.05001e-08
1.38804e-05
3.05102e-08
1.38818e-05
3.00126e-08
1.38833e-05
2.9067e-08
2.77613e-08
1.38848e-05
1.45436e-05
2.74794e-09
1.45433e-05
7.90168e-09
1.4543e-05
1.04122e-08
1.45426e-05
1.17855e-08
1.45422e-05
1.30047e-08
1.45419e-05
1.43956e-08
1.45415e-05
1.59988e-08
1.45411e-05
1.77883e-08
1.45408e-05
1.96987e-08
1.45406e-05
2.16816e-08
1.45405e-05
2.36385e-08
1.45406e-05
2.54761e-08
1.4541e-05
2.70774e-08
1.45415e-05
2.83236e-08
1.45424e-05
2.91319e-08
1.45434e-05
2.94545e-08
1.45446e-05
2.92812e-08
1.4546e-05
2.86522e-08
1.45474e-05
2.76313e-08
2.63038e-08
1.45489e-05
1.52388e-05
2.83781e-09
1.52385e-05
8.15344e-09
1.52382e-05
1.07335e-08
1.52379e-05
1.2131e-08
1.52375e-05
1.33583e-08
1.52372e-05
1.47475e-08
1.52368e-05
1.63375e-08
1.52365e-05
1.80918e-08
1.52363e-05
1.99409e-08
1.52361e-05
2.18207e-08
1.52361e-05
2.36342e-08
1.52363e-05
2.52842e-08
1.52368e-05
2.66646e-08
1.52374e-05
2.76776e-08
1.52383e-05
2.82587e-08
1.52393e-05
2.83803e-08
1.52406e-05
2.8049e-08
1.52419e-05
2.73123e-08
1.52433e-05
2.62357e-08
2.49004e-08
1.52447e-05
1.59672e-05
2.92483e-09
1.5967e-05
8.39582e-09
1.59667e-05
1.10408e-08
1.59664e-05
1.24581e-08
1.5966e-05
1.36877e-08
1.59657e-05
1.50676e-08
1.59654e-05
1.66339e-08
1.59652e-05
1.83413e-08
1.5965e-05
2.0115e-08
1.59649e-05
2.18801e-08
1.5965e-05
2.35408e-08
1.59653e-05
2.50016e-08
1.59658e-05
2.61684e-08
1.59665e-05
2.69627e-08
1.59674e-05
2.73379e-08
1.59685e-05
2.72831e-08
1.59698e-05
2.68182e-08
1.59711e-05
2.59953e-08
1.59724e-05
2.48803e-08
2.3549e-08
1.59738e-05
1.67305e-05
3.008e-09
1.67303e-05
8.62584e-09
1.673e-05
1.13303e-08
1.67297e-05
1.27622e-08
1.67294e-05
1.39878e-08
1.67291e-05
1.53501e-08
1.67289e-05
1.68822e-08
1.67287e-05
1.85309e-08
1.67286e-05
2.02166e-08
1.67286e-05
2.18569e-08
1.67288e-05
2.33587e-08
1.67291e-05
2.46314e-08
1.67297e-05
2.55939e-08
1.67305e-05
2.61856e-08
1.67315e-05
2.63762e-08
1.67326e-05
2.61686e-08
1.67338e-05
2.55925e-08
1.67351e-05
2.47029e-08
1.67364e-05
2.35646e-08
2.22476e-08
1.67377e-05
1.75303e-05
3.08619e-09
1.75301e-05
8.84017e-09
1.75298e-05
1.15973e-08
1.75295e-05
1.30383e-08
1.75293e-05
1.42532e-08
1.7529e-05
1.55893e-08
1.75288e-05
1.70767e-08
1.75287e-05
1.86554e-08
1.75287e-05
2.02417e-08
1.75288e-05
2.17493e-08
1.75291e-05
2.30887e-08
1.75295e-05
2.4177e-08
1.75302e-05
2.49465e-08
1.7531e-05
2.53526e-08
1.7532e-05
2.53796e-08
1.75331e-05
2.50416e-08
1.75343e-05
2.43752e-08
1.75356e-05
2.34365e-08
1.75369e-05
2.2288e-08
2.0994e-08
1.75381e-05
1.83683e-05
3.15811e-09
1.83681e-05
9.03513e-09
1.83678e-05
1.18372e-08
1.83676e-05
1.3281e-08
1.83674e-05
1.44779e-08
1.83672e-05
1.57791e-08
1.8367e-05
1.72115e-08
1.8367e-05
1.87098e-08
1.8367e-05
2.01871e-08
1.83672e-05
2.15562e-08
1.83676e-05
2.27325e-08
1.83681e-05
2.36425e-08
1.83688e-05
2.42318e-08
1.83697e-05
2.447e-08
1.83708e-05
2.4354e-08
1.83719e-05
2.39064e-08
1.83731e-05
2.31688e-08
1.83743e-05
2.21968e-08
1.83756e-05
2.10497e-08
1.97859e-08
1.83768e-05
1.92463e-05
3.22237e-09
1.92462e-05
9.20667e-09
1.92459e-05
1.20445e-08
1.92457e-05
1.34844e-08
1.92456e-05
1.4656e-08
1.92454e-05
1.59135e-08
1.92454e-05
1.72812e-08
1.92454e-05
1.86895e-08
1.92455e-05
2.00502e-08
1.92458e-05
2.12772e-08
1.92462e-05
2.22923e-08
1.92468e-05
2.30323e-08
1.92476e-05
2.34553e-08
1.92486e-05
2.35436e-08
1.92496e-05