/*--------------------------------*- C++ -*----------------------------------*\
| =========                 |                                                 |
| \\      /  F ield         | OpenFOAM: The Open Source CFD Toolbox           |
|  \\    /   O peration     | Version:  2106                                  |
|   \\  /    A nd           | Website:  www.openfoam.com                      |
|    \\/     M anipulation  |                                                 |
\*---------------------------------------------------------------------------*/
FoamFile
{
    version     2.0;
    format      ascii;
    arch        "LSB;label=32;scalar=64";
    class       surfaceScalarField;
    location    "0.42";
    object      phi;
}
// * * * * * * * * * * * * * * * * * * * * * * * * * * * * * * * * * * * * * //

dimensions      [0 3 -1 0 0 0 0];

oriented        oriented;

internalField   nonuniform List<scalar> 
19000
(
1.18536e-06
-7.57812e-07
1.1811e-06
-4.04685e-08
1.16738e-06
1.79982e-07
1.1415e-06
4.50595e-07
1.17056e-06
-2.84678e-07
1.20073e-06
-1.30289e-07
1.21477e-06
-6.47604e-07
1.22755e-06
2.60624e-07
1.2419e-06
-1.26438e-07
1.22559e-06
4.21658e-07
1.21747e-06
1.27942e-07
1.20728e-06
3.21402e-07
1.2167e-06
-4.47066e-08
1.2134e-06
1.70035e-08
1.22454e-06
-1.59638e-07
1.21572e-06
-1.04187e-07
1.22228e-06
-1.20608e-07
1.2136e-06
-6.65182e-08
1.21037e-06
-2.67744e-08
3.46987e-08
1.18307e-06
1.24428e-06
-7.77833e-07
1.24059e-06
-3.67785e-08
1.2257e-06
1.94876e-07
1.20598e-06
4.70314e-07
1.23179e-06
-3.10494e-07
1.2615e-06
-1.59997e-07
1.27784e-06
-6.63939e-07
1.2933e-06
2.45163e-07
1.30591e-06
-1.39053e-07
1.29477e-06
4.328e-07
1.28058e-06
1.42132e-07
1.27872e-06
3.23262e-07
1.27734e-06
-4.33286e-08
1.283e-06
1.13429e-08
1.2807e-06
-1.57335e-07
1.28553e-06
-1.09013e-07
1.27434e-06
-1.09427e-07
1.28568e-06
-7.78566e-08
1.2586e-06
3.11977e-10
2.60949e-08
1.2672e-06
1.30231e-06
-7.9736e-07
1.30695e-06
-4.14231e-08
1.29025e-06
2.11584e-07
1.27809e-06
4.82475e-07
1.29522e-06
-3.27631e-07
1.3239e-06
-1.88676e-07
1.33941e-06
-6.79449e-07
1.36276e-06
2.21811e-07
1.36968e-06
-1.45965e-07
1.3688e-06
4.33674e-07
1.34701e-06
1.63925e-07
1.35002e-06
3.20254e-07
1.33803e-06
-3.13448e-08
1.34526e-06
4.11817e-09
1.33522e-06
-1.47296e-07
1.34205e-06
-1.15839e-07
1.33071e-06
-9.80873e-08
1.33795e-06
-8.51027e-08
1.32391e-06
1.43544e-08
3.3868e-08
1.31614e-06
1.35943e-06
-8.1269e-07
1.37493e-06
-5.69226e-08
1.35912e-06
2.27394e-07
1.35263e-06
4.88968e-07
1.35853e-06
-3.33527e-07
1.38276e-06
-2.12907e-07
1.39731e-06
-6.93997e-07
1.42774e-06
1.91376e-07
1.43191e-06
-1.50129e-07
1.43725e-06
4.28328e-07
1.41528e-06
1.85892e-07
1.41516e-06
3.20374e-07
1.39885e-06
-1.50315e-08
1.40013e-06
2.84227e-09
1.38896e-06
-1.36132e-07
1.39215e-06
-1.19025e-07
1.38547e-06
-9.14119e-08
1.38899e-06
-8.86174e-08
1.38319e-06
2.0148e-08
4.30304e-08
1.37403e-06
1.41672e-06
-8.21058e-07
1.44145e-06
-8.16505e-08
1.43021e-06
2.38632e-07
1.42622e-06
4.92959e-07
1.42158e-06
-3.28883e-07
1.43765e-06
-2.28983e-07
1.45205e-06
-7.08399e-07
1.4869e-06
1.56533e-07
1.49238e-06
-1.55617e-07
1.50073e-06
4.19979e-07
1.48318e-06
2.03442e-07
1.47856e-06
3.24996e-07
1.46007e-06
3.46222e-09
1.45574e-06
7.17246e-09
1.44343e-06
-1.23823e-07
1.44434e-06
-1.19941e-07
1.43942e-06
-8.64863e-08
1.44237e-06
-9.15677e-08
1.44001e-06
2.25071e-08
5.03421e-08
1.4327e-06
1.47647e-06
-8.21849e-07
1.50587e-06
-1.11053e-07
1.50184e-06
2.42658e-07
1.49815e-06
4.96652e-07
1.48601e-06
-3.1674e-07
1.49238e-06
-2.35355e-07
1.50642e-06
-7.22437e-07
1.54302e-06
1.19935e-07
1.5515e-06
-1.64105e-07
1.5623e-06
4.09182e-07
1.54945e-06
2.16292e-07
1.54273e-06
3.31718e-07
1.52245e-06
2.37393e-08
1.51506e-06
1.45648e-08
1.50109e-06
-1.09855e-07
1.50066e-06
-1.19506e-07
1.49605e-06
-8.18801e-08
1.49825e-06
-9.37693e-08
1.49834e-06
2.24191e-08
5.65918e-08
1.49209e-06
1.54091e-06
-8.16546e-07
1.56974e-06
-1.39881e-07
1.5731e-06
2.39299e-07
1.56951e-06
5.00243e-07
1.55355e-06
-3.00777e-07
1.55161e-06
-2.33418e-07
1.56345e-06
-7.34278e-07
1.5992e-06
8.41881e-08
1.60975e-06
-1.74661e-07
1.62319e-06
3.95743e-07
1.61381e-06
2.25678e-07
1.60756e-06
3.37967e-07
1.5866e-06
4.46969e-08
1.57838e-06
2.27882e-08
1.56345e-06
-9.49233e-08
1.56184e-06
-1.179e-07
1.55716e-06
-7.71988e-08
1.55767e-06
-9.42801e-08
1.55936e-06
2.07295e-08
6.24022e-08
1.55355e-06
1.61117e-06
-8.07588e-07
1.63536e-06
-1.64065e-07
1.644e-06
2.30657e-07
1.64175e-06
5.02495e-07
1.62511e-06
-2.8414e-07
1.61808e-06
-2.26395e-07
1.62537e-06
-7.41559e-07
1.65758e-06
5.19769e-08
1.66808e-06
-1.85164e-07
1.68372e-06
3.80098e-07
1.67687e-06
2.32535e-07
1.67292e-06
3.41919e-07
1.65301e-06
6.45992e-08
1.64573e-06
3.00704e-08
1.63101e-06
-8.02025e-08
1.62845e-06
-1.15338e-07
1.62355e-06
-7.22962e-08
1.62167e-06
-9.24034e-08
1.62392e-06
1.84788e-08
6.83089e-08
1.61801e-06
1.68708e-06
-7.97093e-07
1.70458e-06
-1.81564e-07
1.71556e-06
2.19677e-07
1.71607e-06
5.01988e-07
1.7009e-06
-2.68976e-07
1.69214e-06
-2.17637e-07
1.69329e-06
-7.42709e-07
1.71983e-06
2.5436e-08
1.72818e-06
-1.93514e-07
1.74501e-06
3.63268e-07
1.74029e-06
2.37255e-07
1.7398e-06
3.42416e-07
1.72251e-06
8.1887e-08
1.71738e-06
3.51977e-08
1.70389e-06
-6.67077e-08
1.70066e-06
-1.12112e-07
1.69561e-06
-6.72487e-08
1.69106e-06
-8.78545e-08
1.69299e-06
1.6557e-08
7.47081e-08
1.68659e-06
1.76785e-06
-7.86222e-07
1.77854e-06
-1.92253e-07
1.78947e-06
2.08746e-07
1.7935e-06
4.97962e-07
1.78087e-06
-2.56347e-07
1.77274e-06
-2.09512e-07
1.76752e-06
-7.3749e-07
1.78754e-06
5.41471e-09
1.79232e-06
-1.9829e-07
1.80929e-06
3.463e-07
1.80654e-06
2.40007e-07
1.81001e-06
3.38946e-07
1.79617e-06
9.57252e-08
1.79368e-06
3.76879e-08
1.78198e-06
-5.50072e-08
1.77829e-06
-1.08424e-07
1.77335e-06
-6.23092e-08
1.7663e-06
-8.0803e-08
1.76735e-06
1.55104e-08
8.16211e-08
1.76043e-06
1.85279e-06
-7.7526e-07
1.85784e-06
-1.97305e-07
1.86747e-06
1.99112e-07
1.87497e-06
4.90465e-07
1.86497e-06
-2.46347e-07
1.8586e-06
-2.03146e-07
1.84788e-06
-7.26764e-07
1.86195e-06
-8.65692e-09
1.86266e-06
-1.98997e-07
1.87909e-06
3.29864e-07
1.87807e-06
2.41034e-07
1.88537e-06
3.31645e-07
1.87498e-06
1.06108e-07
1.87492e-06
3.7753e-08
1.86513e-06
-4.52141e-08
1.861e-06
-1.04298e-07
1.85645e-06
-5.77645e-08
1.84742e-06
-7.1766e-08
1.84739e-06
1.55391e-08
8.86488e-08
1.84036e-06
1.94161e-06
-7.64035e-07
1.94277e-06
-1.98463e-07
1.95083e-06
1.9105e-07
1.96123e-06
4.80065e-07
1.9533e-06
-2.38415e-07
1.94886e-06
-1.98704e-07
1.93399e-06
-7.11897e-07
1.94362e-06
-1.82806e-08
1.94058e-06
-1.95957e-07
1.9563e-06
3.14144e-07
1.95658e-06
2.40746e-07
1.96706e-06
3.21167e-07
1.95956e-06
1.13612e-07
1.96125e-06
3.60625e-08
1.95319e-06
-3.7156e-08
1.94849e-06
-9.96005e-08
1.94453e-06
-5.37991e-08
1.93419e-06
-6.14276e-08
1.93309e-06
1.664e-08
9.51605e-08
1.92658e-06
2.03444e-06
-7.52282e-07
2.03342e-06
-1.97444e-07
2.04013e-06
1.84335e-07
2.05271e-06
4.67482e-07
2.04602e-06
-2.31719e-07
2.04317e-06
-1.95854e-07
2.02549e-06
-6.94215e-07
2.03239e-06
-2.51875e-08
2.02641e-06
-1.89974e-07
2.04159e-06
2.98967e-07
2.04271e-06
2.39626e-07
2.05545e-06
3.08422e-07
2.05006e-06
1.1901e-07
2.05268e-06
3.34415e-08
2.04609e-06
-3.05663e-08
2.04065e-06
-9.41621e-08
2.03727e-06
-5.0417e-08
2.02631e-06
-5.04709e-08
2.0242e-06
1.87491e-08
1.00573e-07
2.01879e-06
2.13153e-06
-7.39815e-07
2.12968e-06
-1.95595e-07
2.13538e-06
1.78644e-07
2.14953e-06
4.53332e-07
2.1433e-06
-2.25489e-07
2.1416e-06
-1.94155e-07
2.12209e-06
-6.74707e-07
2.12771e-06
-3.08105e-08
2.11968e-06
-1.81943e-07
2.13463e-06
2.84018e-07
2.13617e-06
2.38084e-07
2.15029e-06
2.94304e-07
2.14634e-06
1.2296e-07
2.14915e-06
3.06357e-08
2.14378e-06
-2.52048e-08
2.13751e-06
-8.78896e-08
2.13454e-06
-4.7442e-08
2.12355e-06
-3.94791e-08
2.1205e-06
2.17976e-08
1.04553e-07
2.11652e-06
2.23322e-06
-7.26547e-07
2.23142e-06
-1.93791e-07
2.23631e-06
1.73754e-07
2.25162e-06
4.38021e-07
2.2453e-06
-2.19172e-07
2.24441e-06
-1.93263e-07
2.22368e-06
-6.53977e-07
2.22895e-06
-3.60789e-08
2.2196e-06
-1.72598e-07
2.2346e-06
2.69024e-07
2.23632e-06
2.36362e-07
2.25108e-06
2.7954e-07
2.24818e-06
1.25858e-07
2.25063e-06
2.81924e-08
2.2463e-06
-2.08796e-08
2.23925e-06
-8.08332e-08
2.23637e-06
-4.45666e-08
2.2258e-06
-2.89083e-08
2.22189e-06
2.57041e-08
1.07071e-07
2.21938e-06
2.33978e-06
-7.12448e-07
2.3385e-06
-1.92515e-07
2.34268e-06
1.6957e-07
2.35895e-06
4.2176e-07
2.35222e-06
-2.12443e-07
2.35193e-06
-1.92972e-07
2.33029e-06
-6.32344e-07
2.33568e-06
-4.14679e-08
2.32552e-06
-1.62439e-07
2.3407e-06
2.53845e-07
2.34254e-06
2.34524e-07
2.35743e-06
2.64653e-07
2.35543e-06
1.27855e-07
2.35718e-06
2.64456e-08
2.3537e-06
-1.74052e-08
2.34605e-06
-7.31786e-08
2.34292e-06
-4.14455e-08
2.3331e-06
-1.90834e-08
2.32845e-06
3.03505e-08
1.08328e-07
2.3272e-06
2.45145e-06
-6.97507e-07
2.45094e-06
-1.91999e-07
2.45442e-06
1.66087e-07
2.47155e-06
4.0463e-07
2.46426e-06
-2.05146e-07
2.46446e-06
-1.93177e-07
2.44208e-06
-6.09967e-07
2.44776e-06
-4.71472e-08
2.4371e-06
-1.51781e-07
2.45247e-06
2.38482e-07
2.45449e-06
2.325e-07
2.46915e-06
2.5e-07
2.46804e-06
1.28958e-07
2.46895e-06
2.55427e-08
2.46613e-06
-1.45867e-08
2.45811e-06
-6.5159e-08
2.45448e-06
-3.78135e-08
2.44556e-06
-1.01708e-08
2.44035e-06
3.55612e-08
1.08655e-07
2.44002e-06
2.5685e-06
-6.8171e-07
2.56885e-06
-1.92349e-07
2.5716e-06
1.63332e-07
2.58959e-06
3.86646e-07
2.58166e-06
-1.97221e-07
2.5823e-06
-1.93813e-07
2.55928e-06
-5.86949e-07
2.56525e-06
-5.31157e-08
2.55431e-06
-1.40846e-07
2.56976e-06
2.23037e-07
2.57211e-06
2.30146e-07
2.58629e-06
2.35824e-07
2.58611e-06
1.29137e-07
2.58617e-06
2.54806e-08
2.58379e-06
-1.22045e-08
2.57563e-06
-5.69995e-08
2.57138e-06
-3.35652e-08
2.56335e-06
-2.13784e-09
2.55783e-06
4.10808e-08
1.08426e-07
2.55806e-06
2.69116e-06
-6.65044e-07
2.69243e-06
-1.93616e-07
2.69442e-06
1.61338e-07
2.71326e-06
3.67814e-07
2.7047e-06
-1.88665e-07
2.70571e-06
-1.94822e-07
2.68215e-06
-5.63386e-07
2.68832e-06
-5.92852e-08
2.6773e-06
-1.29825e-07
2.69266e-06
2.07676e-07
2.6955e-06
2.27298e-07
2.70904e-06
2.2229e-07
2.70978e-06
1.28398e-07
2.7091e-06
2.61541e-08
2.70693e-06
-1.00339e-08
2.69881e-06
-4.88784e-08
2.69398e-06
-2.87325e-08
2.68668e-06
5.1647e-09
2.68113e-06
4.66317e-08
1.07975e-07
2.68158e-06
2.81972e-06
-6.47496e-07
2.82193e-06
-1.95828e-07
2.82314e-06
1.60127e-07
2.84281e-06
3.48149e-07
2.83366e-06
-1.79513e-07
2.83496e-06
-1.96132e-07
2.81098e-06
-5.39404e-07
2.81722e-06
-6.5518e-08
2.8063e-06
-1.18909e-07
2.82138e-06
1.92593e-07
2.82487e-06
2.23811e-07
2.83767e-06
2.09486e-07
2.83925e-06
1.26816e-07
2.838e-06
2.7404e-08
2.83586e-06
-7.8915e-09
2.82788e-06
-4.08951e-08
2.82256e-06
-2.34149e-08
2.81585e-06
1.18764e-08
2.81049e-06
5.19912e-08
1.0754e-07
2.81093e-06
2.95446e-06
-6.29058e-07
2.95763e-06
-1.99e-07
2.95805e-06
1.59707e-07
2.9785e-06
3.27694e-07
2.96882e-06
-1.6983e-07
2.97033e-06
-1.97644e-07
2.94609e-06
-5.15162e-07
2.95221e-06
-7.16417e-08
2.94161e-06
-1.08303e-07
2.95622e-06
1.77986e-07
2.96044e-06
2.19588e-07
2.9725e-06
1.97428e-07
2.97478e-06
1.24529e-07
2.97312e-06
2.90703e-08
2.97089e-06
-5.66387e-09
2.96307e-06
-3.30729e-08
2.95739e-06
-1.77353e-08
2.95118e-06
1.80899e-08
2.94616e-06
5.70112e-08
1.07241e-07
2.94645e-06
3.09567e-06
-6.09726e-07
3.09981e-06
-2.03136e-07
3.09945e-06
1.60065e-07
3.12063e-06
3.06519e-07
3.11051e-06
-1.59712e-07
3.11209e-06
-1.99228e-07
3.08779e-06
-4.90857e-07
3.0936e-06
-7.74565e-08
3.08352e-06
-9.82214e-08
3.09749e-06
1.64024e-07
3.10246e-06
2.14609e-07
3.11384e-06
1.86053e-07
3.11665e-06
1.21715e-07
3.1147e-06
3.10231e-08
3.11233e-06
-3.29558e-09
3.10466e-06
-2.53995e-08
3.09871e-06
-1.17866e-08
3.09298e-06
2.38254e-08
3.08837e-06
6.16137e-08
1.07105e-07
3.08851e-06
3.24369e-06
-5.89505e-07
3.24878e-06
-2.08228e-07
3.24768e-06
1.6117e-07
3.26947e-06
2.84728e-07
3.25905e-06
-1.49291e-07
3.26054e-06
-2.00722e-07
3.23641e-06
-4.66723e-07
3.24169e-06
-8.27449e-08
3.23235e-06
-8.88736e-08
3.24554e-06
1.50829e-07
3.25122e-06
2.08932e-07
3.26202e-06
1.7525e-07
3.26519e-06
1.18542e-07
3.26302e-06
3.31931e-08
3.2605e-06
-7.7408e-10
3.25298e-06
-1.78761e-08
3.2468e-06
-5.60394e-09
3.24157e-06
2.90554e-08
3.23742e-06
6.57548e-08
1.07096e-07
3.23743e-06
3.39883e-06
-5.68405e-07
3.40486e-06
-2.14254e-07
3.40306e-06
1.62963e-07
3.42533e-06
2.62462e-07
3.41477e-06
-1.38732e-07
3.41598e-06
-2.01931e-07
3.39228e-06
-4.4302e-07
3.39682e-06
-8.72847e-08
3.38838e-06
-8.0434e-08
3.40075e-06
1.38456e-07
3.407e-06
2.02678e-07
3.41735e-06
1.64909e-07
3.42075e-06
1.15136e-07
3.41837e-06
3.55783e-08
3.4157e-06
1.88853e-09
3.4084e-06
-1.05739e-08
3.40196e-06
8.34947e-10
3.39724e-06
3.3778e-08
3.39362e-06
6.93778e-08
1.0716e-07
3.39355e-06
3.56145e-06
-5.46445e-07
3.56837e-06
-2.21176e-07
3.56598e-06
1.6536e-07
3.58854e-06
2.39901e-07
3.57804e-06
-1.28235e-07
3.57874e-06
-2.02633e-07
3.55575e-06
-4.20027e-07
3.55932e-06
-9.08578e-08
3.5519e-06
-7.30097e-08
3.56348e-06
1.2687e-07
3.57015e-06
1.96008e-07
3.58012e-06
1.54943e-07
3.5837e-06
1.11552e-07
3.58104e-06
3.82414e-08
3.57826e-06
4.66745e-09
3.5713e-06
-3.60822e-09
3.5646e-06
7.5285e-09
3.5603e-06
3.80835e-08
3.55728e-06
7.23962e-08
1.07225e-07
3.55721e-06
3.73191e-06
-5.23653e-07
3.73968e-06
-2.28942e-07
3.73679e-06
1.68251e-07
3.75943e-06
2.1726e-07
3.74923e-06
-1.18032e-07
3.74918e-06
-2.02582e-07
3.72718e-06
-3.98034e-07
3.7296e-06
-9.32728e-08
3.72322e-06
-6.66275e-08
3.73413e-06
1.15957e-07
3.74103e-06
1.89102e-07
3.75064e-06
1.45333e-07
3.75444e-06
1.07754e-07
3.7514e-06
4.12807e-08
3.74852e-06
7.55357e-09
3.74201e-06
2.90143e-09
3.73515e-06
1.43884e-08
3.73108e-06
4.21522e-08
3.72873e-06
7.47488e-08
1.07183e-07
3.72877e-06
3.9106e-06
-5.00066e-07
3.91914e-06
-2.37478e-07
3.91589e-06
1.71494e-07
3.93836e-06
1.94792e-07
3.92871e-06
-1.08383e-07
3.92765e-06
-2.01524e-07
3.90693e-06
-3.77312e-07
3.90808e-06
-9.44167e-08
3.90266e-06
-6.12108e-08
3.91305e-06
1.05564e-07
3.92005e-06
1.82104e-07
3.92924e-06
1.36148e-07
3.93333e-06
1.03656e-07
3.92987e-06
4.47477e-08
3.92679e-06
1.06288e-08
3.92087e-06
8.82732e-09
3.91402e-06
2.12359e-08
3.90999e-06
4.61838e-08
3.90826e-06
7.64729e-08
1.06876e-07
3.90857e-06
4.09792e-06
-4.75731e-07
4.10713e-06
-2.46693e-07
4.1037e-06
1.74921e-07
4.12572e-06
1.72778e-07
4.11689e-06
-9.95588e-08
4.11458e-06
-1.99213e-07
4.09533e-06
-3.58061e-07
4.09523e-06
-9.43133e-08
4.0906e-06
-5.65793e-08
4.10063e-06
9.55294e-08
4.10763e-06
1.75109e-07
4.11625e-06
1.27519e-07
4.12074e-06
9.91701e-08
4.11687e-06
4.86167e-08
4.11346e-06
1.40355e-08
4.10821e-06
1.40779e-08
4.10162e-06
2.78311e-08
4.09748e-06
5.03174e-08
4.09622e-06
7.77331e-08
1.06141e-07
4.09696e-06
4.29428e-06
-4.50706e-07
4.30406e-06
-2.56473e-07
4.30064e-06
1.78337e-07
4.3219e-06
1.51521e-07
4.31417e-06
-9.18344e-08
4.31039e-06
-1.9543e-07
4.29272e-06
-3.40387e-07
4.29152e-06
-9.31207e-08
4.28742e-06
-5.24784e-08
4.29725e-06
8.5703e-08
4.30419e-06
1.68167e-07
4.31211e-06
1.19603e-07
4.31703e-06
9.42522e-08
4.31286e-06
5.27783e-08
4.30897e-06
1.79256e-08
4.30443e-06
1.86235e-08
4.29831e-06
3.39482e-08
4.29407e-06
5.45613e-08
4.29303e-06
7.87736e-08
1.04898e-07
4.29427e-06
4.50013e-06
-4.25062e-07
4.51034e-06
-2.66681e-07
4.50715e-06
1.81528e-07
4.52734e-06
1.31328e-07
4.52098e-06
-8.54754e-08
4.51558e-06
-1.90028e-07
4.49946e-06
-3.24264e-07
4.49743e-06
-9.10971e-08
4.49357e-06
-4.86155e-08
4.50331e-06
7.596e-08
4.51019e-06
1.6129e-07
4.51724e-06
1.12556e-07
4.52256e-06
8.89275e-08
4.51832e-06
5.70212e-08
4.51382e-06
2.24288e-08
4.50991e-06
2.25266e-08
4.50447e-06
3.93937e-08
4.50022e-06
5.8811e-08
4.49917e-06
7.98222e-08
1.03221e-07
4.50085e-06
4.71594e-06
-3.98884e-07
4.72641e-06
-2.77158e-07
4.72367e-06
1.84269e-07
4.7425e-06
1.12505e-07
4.73775e-06
-8.07292e-08
4.73067e-06
-1.82943e-07
4.71594e-06
-3.0954e-07
4.71342e-06
-8.85766e-08
4.70949e-06
-4.46824e-08
4.71924e-06
6.62056e-08
4.72608e-06
1.54456e-07
4.73208e-06
1.06551e-07
4.73779e-06
8.32249e-08
4.73374e-06
6.10672e-08
4.7285e-06
2.76646e-08
4.7251e-06
2.59294e-08
4.72047e-06
4.40196e-08
4.71639e-06
6.28923e-08
4.7152e-06
8.10119e-08
1.01318e-07
4.71711e-06
4.94218e-06
-3.72268e-07
4.95275e-06
-2.87726e-07
4.95069e-06
1.86329e-07
4.96786e-06
9.53308e-08
4.96493e-06
-7.77977e-08
4.95618e-06
-1.7419e-07
4.94261e-06
-2.95973e-07
4.93997e-06
-8.59341e-08
4.93566e-06
-4.03704e-08
4.94548e-06
5.6379e-08
4.95233e-06
1.47614e-07
4.95712e-06
1.01758e-07
4.96313e-06
7.72175e-08
4.95961e-06
6.45872e-08
4.9536e-06
3.3668e-08
4.95047e-06
2.90613e-08
4.94675e-06
4.77412e-08
4.94303e-06
6.66162e-08
4.9417e-06
8.23345e-08
9.94484e-08
4.94357e-06
5.17938e-06
-3.45327e-07
5.18983e-06
-2.98185e-07
5.18868e-06
1.87482e-07
5.20398e-06
8.00308e-08
5.20296e-06
-7.6775e-08
5.19266e-06
-1.63895e-07
5.17994e-06
-2.83247e-07
5.17756e-06
-8.3561e-08
5.17259e-06
-3.53966e-08
5.18248e-06
4.64909e-08
5.18945e-06
1.40637e-07
5.1929e-06
9.83165e-08
5.19898e-06
7.11328e-08
5.19637e-06
6.71996e-08
5.18976e-06
4.02799e-08
5.18653e-06
3.22846e-08
5.18373e-06
5.05433e-08
5.18055e-06
6.9795e-08
5.1792e-06
8.3685e-08
9.78111e-08
5.18084e-06
5.42805e-06
-3.18187e-07
5.43818e-06
-3.08318e-07
5.43816e-06
1.87509e-07
5.4514e-06
6.67889e-08
5.4523e-06
-7.76755e-08
5.44067e-06
-1.52265e-07
5.42842e-06
-2.70999e-07
5.4267e-06
-8.18437e-08
5.42085e-06
-2.95472e-08
5.43064e-06
3.67011e-08
5.43809e-06
1.33191e-07
5.43995e-06
9.64516e-08
5.44577e-06
6.53156e-08
5.44446e-06
6.85144e-08
5.43756e-06
4.71773e-08
5.43389e-06
3.59567e-08
5.43189e-06
5.25394e-08
5.42942e-06
7.22689e-08
5.42819e-06
8.49105e-08
9.64823e-08
5.42952e-06
5.68876e-06
-2.90989e-07
5.69834e-06
-3.17899e-07
5.69965e-06
1.86203e-07
5.71068e-06
5.57578e-08
5.71345e-06
-8.04506e-08
5.70076e-06
-1.39574e-07
5.68859e-06
-2.58826e-07
5.68789e-06
-8.11469e-08
5.68108e-06
-2.27378e-08
5.69037e-06
2.74165e-08
5.69873e-06
1.24826e-07
5.69903e-06
9.61493e-08
5.70399e-06
6.03646e-08
5.70428e-06
6.82189e-08
5.69757e-06
5.3893e-08
5.69322e-06
4.02989e-08
5.69177e-06
5.39892e-08
5.69009e-06
7.39499e-08
5.68914e-06
8.58598e-08
9.5394e-08
5.69023e-06
5.96209e-06
-2.63888e-07
5.97088e-06
-3.26684e-07
5.97372e-06
1.8336e-07
5.9824e-06
4.70824e-08
5.98696e-06
-8.5018e-08
5.97355e-06
-1.26165e-07
5.96101e-06
-2.46283e-07
5.96163e-06
-8.17656e-08
5.95399e-06
-1.50976e-08
5.96213e-06
1.92777e-08
5.97181e-06
1.15143e-07
5.97099e-06
9.69726e-08
5.97437e-06
5.69797e-08
5.97619e-06
6.63991e-08
5.97028e-06
5.98065e-08
5.96527e-06
4.53107e-08
5.96401e-06
5.52462e-08
5.96309e-06
7.48751e-08
5.96255e-06
8.63999e-08
9.43761e-08
5.96356e-06
6.24866e-06
-2.37057e-07
6.25639e-06
-3.34416e-07
6.26096e-06
1.78789e-07
6.26714e-06
4.09008e-08
6.27339e-06
-9.12655e-08
6.25969e-06
-1.12466e-07
6.24628e-06
-2.32874e-07
6.2484e-06
-8.38837e-08
6.24032e-06
-7.02034e-09
6.2465e-06
1.3101e-08
6.25772e-06
1.03921e-07
6.25649e-06
9.82006e-08
6.2578e-06
5.5672e-08
6.2607e-06
6.35017e-08
6.25613e-06
6.43715e-08
6.25071e-06
5.0732e-08
6.24931e-06
5.6648e-08
6.249e-06
7.51874e-08
6.24893e-06
8.64653e-08
9.32108e-08
6.2501e-06
6.54909e-06
-2.1068e-07
6.5555e-06
-3.40824e-07
6.56198e-06
1.72312e-07
6.56555e-06
3.73237e-08
6.5733e-06
-9.90146e-08
6.55986e-06
-9.90252e-08
6.54508e-06
-2.18089e-07
6.54864e-06
-8.74422e-08
6.54082e-06
7.94642e-10
6.54419e-06
9.73263e-09
6.55681e-06
9.12973e-08
6.55618e-06
9.88337e-08
6.55521e-06
5.66438e-08
6.55844e-06
6.02694e-08
6.55557e-06
6.72424e-08
6.55015e-06
5.61505e-08
6.54841e-06
5.83851e-08
6.54854e-06
7.50591e-08
6.54889e-06
8.61215e-08
9.17182e-08
6.55038e-06
6.86407e-06
-1.84959e-07
6.86886e-06
-3.45615e-07
6.8774e-06
1.63776e-07
6.87832e-06
3.63945e-08
6.88728e-06
-1.07968e-07
6.87478e-06
-8.65303e-08
6.85814e-06
-2.01449e-07
6.86283e-06
-9.21277e-08
6.85615e-06
7.47825e-09
6.85622e-06
9.66178e-09
6.86954e-06
7.79762e-08
6.87046e-06
9.79109e-08
6.86758e-06
5.95207e-08
6.87021e-06
5.76378e-08
6.86907e-06
6.8392e-08
6.86416e-06
6.10578e-08
6.86205e-06
6.04883e-08
6.86245e-06
7.46634e-08
6.86309e-06
8.54776e-08
8.98888e-08
6.86492e-06
7.19428e-06
-1.60106e-07
7.19715e-06
-3.48485e-07
7.20788e-06
1.5305e-07
7.20619e-06
3.80809e-08
7.21591e-06
-1.17689e-07
7.20515e-06
-7.57644e-08
7.18631e-06
-1.82613e-07
7.19157e-06
-9.739e-08
7.18688e-06
1.21762e-08
7.18374e-06
1.27982e-08
7.1965e-06
6.52127e-08
7.19971e-06
9.47011e-08
7.19571e-06
6.35191e-08
7.19698e-06
5.63707e-08
7.19722e-06
6.81565e-08
7.19331e-06
6.49652e-08
7.19093e-06
6.28697e-08
7.19143e-06
7.41582e-08
7.19231e-06
8.45983e-08
8.79059e-08
7.1943e-06
7.54047e-06
-1.36345e-07
7.5411e-06
-3.49115e-07
7.55411e-06
1.40032e-07
7.54997e-06
4.22214e-08
7.55984e-06
-1.27558e-07
7.55161e-06
-6.75321e-08
7.53054e-06
-1.61544e-07
7.53548e-06
-1.02334e-07
7.5336e-06
1.40559e-08
7.52775e-06
1.8651e-08
7.53863e-06
5.43356e-08
7.5443e-06
8.90277e-08
7.5402e-06
6.76167e-08
7.53978e-06
5.68e-08
7.54078e-06
6.71493e-08
7.53814e-06
6.76056e-08
7.53576e-06
6.52532e-08
7.53625e-06
7.36698e-08
7.53736e-06
8.34822e-08
8.60112e-08
7.53926e-06
7.90337e-06
-1.13906e-07
7.90144e-06
-3.47187e-07
7.91684e-06
1.24636e-07
7.91055e-06
4.85139e-08
7.9197e-06
-1.36714e-07
7.91474e-06
-6.25673e-08
7.89184e-06
-1.38646e-07
7.89531e-06
-1.05802e-07
7.89667e-06
1.26945e-08
7.88916e-06
2.61604e-08
7.89704e-06
4.6454e-08
7.90472e-06
8.13507e-08
7.90159e-06
7.0742e-08
7.89963e-06
5.87645e-08
7.90063e-06
6.61505e-08
7.89927e-06
6.89671e-08
7.89726e-06
6.72645e-08
7.89765e-06
7.32749e-08
7.89904e-06
8.20933e-08
8.43023e-08
7.90075e-06
8.28379e-06
-9.30172e-08
8.279e-06
-3.42396e-07
8.29679e-06
1.06851e-07
8.2888e-06
5.64964e-08
8.29625e-06
-1.44158e-07
8.29508e-06
-6.1398e-08
8.27114e-06
-1.14709e-07
8.27196e-06
-1.0662e-07
8.27646e-06
8.1911e-09
8.2687e-06
3.39283e-08
8.27293e-06
4.22221e-08
8.28173e-06
7.25525e-08
8.28041e-06
7.20601e-08
8.27739e-06
6.17826e-08
8.27778e-06
6.57566e-08
8.27743e-06
6.93224e-08
8.27611e-06
6.85876e-08
8.27646e-06
7.29171e-08
8.27805e-06
8.05057e-08
8.26169e-08
8.27974e-06
8.68254e-06
-7.38964e-08
8.67462e-06
-3.34479e-07
8.69468e-06
8.67995e-08
8.68565e-06
6.55182e-08
8.69037e-06
-1.48876e-07
8.69316e-06
-6.41881e-08
8.66933e-06
-9.08772e-08
8.66658e-06
-1.03869e-07
8.6736e-06
1.16766e-09
8.6669e-06
4.06338e-08
8.66757e-06
4.15469e-08
8.67629e-06
6.38359e-08
8.67715e-06
7.11968e-08
8.67385e-06
6.50808e-08
8.67333e-06
6.62843e-08
8.67354e-06
6.91125e-08
8.67299e-06
6.91318e-08
8.67349e-06
7.2416e-08
8.67526e-06
7.87425e-08
8.08914e-08
8.67698e-06
9.10046e-06
-5.674e-08
9.08925e-06
-3.23262e-07
9.11127e-06
6.47761e-08
9.10204e-06
7.47522e-08
9.10316e-06
-1.50005e-07
9.10954e-06
-7.05676e-08
9.08727e-06
-6.86075e-08
9.08041e-06
-9.70064e-08
9.08886e-06
-7.28094e-09
9.08431e-06
4.51803e-08
9.0821e-06
4.37561e-08
9.08944e-06
5.64984e-08
9.09245e-06
6.81885e-08
9.08977e-06
6.77618e-08
9.08832e-06
6.77328e-08
9.08856e-06
6.88765e-08
9.08873e-06
6.89558e-08
9.08957e-06
7.1575e-08
9.09151e-06
7.68048e-08
7.90592e-08
9.09334e-06
9.53843e-06
-4.17098e-08
9.52389e-06
-3.08719e-07
9.54738e-06
4.12781e-08
9.53891e-06
8.323e-08
9.53582e-06
-1.46918e-07
9.54495e-06
-7.96977e-08
9.52564e-06
-4.93019e-08
9.51482e-06
-8.61846e-08
9.52328e-06
-1.57412e-08
9.52147e-06
4.6996e-08
9.51734e-06
4.78878e-08
9.52249e-06
5.13443e-08
9.52713e-06
6.35533e-08
9.52579e-06
6.90924e-08
9.52375e-06
6.9779e-08
9.5236e-06
6.90263e-08
9.52422e-06
6.83349e-08
9.52551e-06
7.02803e-08
9.52765e-06
7.46714e-08
7.69549e-08
9.52975e-06
9.99735e-06
-2.8921e-08
9.97963e-06
-2.91002e-07
1.00039e-05
1.69942e-08
9.99717e-06
8.99678e-08
9.98963e-06
-1.39373e-07
1.00003e-05
-9.03789e-08
9.98511e-06
-3.40985e-08
9.971e-06
-7.20815e-08
9.97802e-06
-2.27608e-08
9.97913e-06
4.58935e-08
9.97413e-06
5.28864e-08
9.97674e-06
4.87371e-08
9.9821e-06
5.81916e-08
9.98262e-06
6.85718e-08
9.98055e-06
7.1845e-08
9.97978e-06
6.9794e-08
9.98054e-06
6.75797e-08
9.98217e-06
6.86474e-08
9.98463e-06
7.22119e-08
7.44401e-08
9.98715e-06
1.04781e-05
-1.84285e-08
1.04576e-05
-2.70455e-07
1.04818e-05
-7.22791e-09
1.04777e-05
9.40938e-08
1.04659e-05
-1.27561e-07
1.04767e-05
-1.01151e-07
1.04663e-05
-2.37377e-08
1.045e-05
-5.5747e-08
1.04545e-05
-2.73399e-08
1.04582e-05
4.22351e-08
1.04534e-05
5.77281e-08
1.04534e-05
4.87254e-08
1.04585e-05
5.30365e-08
1.0461e-05
6.61404e-08
1.04596e-05
7.32348e-08
1.04583e-05
7.10549e-08
1.04588e-05
6.70993e-08
1.04607e-05
6.66859e-08
1.04635e-05
6.94627e-08
7.1519e-08
1.04664e-05
1.09818e-05
-1.02185e-08
1.09589e-05
-2.47588e-07
1.09822e-05
-3.0462e-08
1.09814e-05
9.48856e-08
1.09658e-05
-1.12e-07
1.09752e-05
-1.1056e-07
1.09698e-05
-1.83163e-08
1.09527e-05
-3.86194e-08
1.09542e-05
-2.8883e-08
1.09598e-05
3.67027e-08
1.09559e-05
6.15726e-08
1.09537e-05
5.08967e-08
1.09577e-05
4.90626e-08
1.09617e-05
6.21888e-08
1.09616e-05
7.32637e-08
1.09602e-05
7.24589e-08
1.09602e-05
6.71412e-08
1.09623e-05
6.45971e-08
1.09653e-05
6.64603e-08
6.82305e-08
1.09686e-05
1.15093e-05
-4.20425e-09
1.14848e-05
-2.23053e-07
1.15061e-05
-5.17778e-08
1.15091e-05
9.19527e-08
1.14907e-05
-9.36283e-08
1.14974e-05
-1.17284e-07
1.14965e-05
-1.74098e-08
1.148e-05
-2.21276e-08
1.14783e-05
-2.72123e-08
1.1485e-05
3.00483e-08
1.14828e-05
6.37816e-08
1.1479e-05
5.46747e-08
1.14811e-05
4.69708e-08
1.14859e-05
5.73801e-08
1.14876e-05
7.15626e-08
1.14865e-05
7.35266e-08
1.14861e-05
6.76146e-08
1.14878e-05
6.29162e-08
1.1491e-05
6.32153e-08
6.47144e-08
1.14945e-05
1.20618e-05
-2.21541e-10
1.20364e-05
-1.97578e-07
1.20549e-05
-7.03353e-08
1.20616e-05
8.52761e-08
1.20416e-05
-7.36672e-08
1.20446e-05
-1.20235e-07
1.20474e-05
-2.02596e-08
1.20329e-05
-7.576e-09
1.20282e-05
-2.25155e-08
1.20351e-05
2.31461e-08
1.20349e-05
6.39389e-08
1.20304e-05
5.92369e-08
1.20303e-05
4.70283e-08
1.20351e-05
5.26363e-08
1.20384e-05
6.81994e-08
1.20383e-05
7.36306e-08
1.20376e-05
6.82966e-08
1.20386e-05
6.19406e-08
1.20418e-05
6.00463e-08
6.10122e-08
1.20455e-05
1.26404e-05
1.95872e-09
1.26148e-05
-1.71937e-07
1.26299e-05
-8.5429e-08
1.26399e-05
7.52016e-08
1.26197e-05
-5.34716e-08
1.26183e-05
-1.18776e-07
1.26239e-05
-2.5856e-08
1.26122e-05
4.1027e-09
1.2605e-05
-1.52782e-08
1.26113e-05
1.68215e-08
1.26134e-05
6.1816e-08
1.26089e-05
6.37518e-08
1.26069e-05
4.90417e-08
1.26106e-05
4.88889e-08
1.26153e-05
6.35495e-08
1.26166e-05
7.22752e-08
1.2616e-05
6.88916e-08
1.26165e-05
6.15051e-08
1.2619e-05
5.7474e-08
5.71884e-08
1.26229e-05
1.32463e-05
2.63432e-09
1.32212e-05
-1.46926e-07
1.32324e-05
-9.65366e-08
1.32452e-05
6.23548e-08
1.32261e-05
-3.43327e-08
1.32203e-05
-1.12981e-07
1.32272e-05
-3.2806e-08
1.3219e-05
1.23345e-08
1.321e-05
-6.2758e-09
1.32149e-05
1.1914e-08
1.32193e-05
5.74265e-08
1.32156e-05
6.73895e-08
1.32122e-05
5.24543e-08
1.32143e-05
4.68661e-08
1.32196e-05
5.81762e-08
1.32226e-05
6.93101e-08
1.32227e-05
6.87504e-08
1.32228e-05
6.14514e-08
1.32246e-05
5.5645e-08
5.36245e-08
1.32282e-05
1.38807e-05
2.14108e-09
1.3857e-05
-1.23275e-07
1.38638e-05
-1.03362e-07
1.38786e-05
4.75473e-08
1.38617e-05
-1.74114e-08
1.3852e-05
-1.03246e-07
1.38589e-05
-3.97546e-08
1.38543e-05
1.69226e-08
1.38446e-05
3.49694e-09
1.38473e-05
9.17241e-09
1.38536e-05
5.11809e-08
1.38518e-05
6.91627e-08
1.38475e-05
5.67698e-08
1.38477e-05
4.65908e-08
1.38529e-05
5.30561e-08
1.38573e-05
6.48576e-08
1.38587e-05
6.73501e-08
1.3859e-05
6.12113e-08
1.38602e-05
5.43769e-08
5.08588e-08
1.3863e-05
1.4545e-05
8.23502e-10
1.45233e-05
-1.01562e-07
1.45259e-05
-1.05964e-07
1.45416e-05
3.18061e-08
1.45278e-05
-3.58321e-09
1.4515e-05
-9.04419e-08
1.45207e-05
-4.54586e-08
1.45196e-05
1.80556e-08
1.451e-05
1.30458e-08
1.45102e-05
9.01743e-09
1.45175e-05
4.38553e-08
1.45182e-05
6.84159e-08
1.45139e-05
6.11327e-08
1.45126e-05
4.78596e-08
1.45167e-05
4.8999e-08
1.45221e-05
5.94009e-08
1.4525e-05
6.44905e-08
1.45257e-05
6.04995e-08
1.45267e-05
5.33123e-08
4.87645e-08
1.45288e-05
1.52407e-05
-9.77434e-10
1.52214e-05
-8.22346e-08
1.522e-05
-1.04645e-07
1.52357e-05
1.61405e-08
1.52254e-05
6.6759e-09
1.52107e-05
-7.56777e-08
1.52142e-05
-4.89347e-08
1.52159e-05
1.62922e-08
1.52076e-05
2.13222e-08
1.52052e-05
1.14298e-08
1.52125e-05
3.65908e-08
1.52159e-05
6.50426e-08
1.52126e-05
6.43539e-08
1.52101e-05
5.03998e-08
1.52127e-05
4.64222e-08
1.52185e-05
5.3614e-08
1.52226e-05
6.03151e-08
1.52243e-05
5.88781e-08
1.52253e-05
5.2303e-08
4.71811e-08
1.52269e-05
1.59693e-05
-2.96344e-09
1.59526e-05
-6.55666e-08
1.59479e-05
-9.9941e-08
1.59625e-05
1.54952e-09
1.59561e-05
1.31569e-08
1.59404e-05
-5.99968e-08
1.59412e-05
-4.97425e-08
1.5945e-05
1.25062e-08
1.59387e-05
2.75775e-08
1.59343e-05
1.57966e-08
1.59402e-05
3.07348e-08
1.5946e-05
5.9262e-08
1.59448e-05
6.55605e-08
1.59417e-05
5.35213e-08
1.59427e-05
4.54172e-08
1.59478e-05
4.8457e-08
1.59532e-05
5.49343e-08
1.59558e-05
5.62338e-08
1.59571e-05
5.10792e-08
4.58128e-08
1.59584e-05
1.67325e-05
-4.87795e-09
1.67186e-05
-5.16487e-08
1.67112e-05
-9.25891e-08
1.67239e-05
-1.11522e-08
1.6721e-05
1.61173e-08
1.67055e-05
-4.45049e-08
1.67035e-05
-4.77372e-08
1.67084e-05
7.59289e-09
1.67046e-05
3.14246e-08
1.66992e-05
2.11217e-08
1.67027e-05
2.72341e-08
1.671e-05
5.20395e-08
1.67114e-05
6.41482e-08
1.67085e-05
5.63456e-08
1.67082e-05
4.57341e-08
1.67119e-05
4.47976e-08
1.67178e-05
4.90554e-08
1.67217e-05
5.22753e-08
1.67233e-05
4.94527e-08
4.43873e-08
1.67248e-05
1.7532e-05
-6.51259e-09
1.75208e-05
-4.04547e-08
1.75115e-05
-8.33368e-08
1.75218e-05
-2.14466e-08
1.75218e-05
1.61643e-08
1.75075e-05
-3.02321e-08
1.75029e-05
-4.31183e-08
1.7508e-05
2.51264e-09
1.75067e-05
3.27164e-08
1.75012e-05
2.65917e-08
1.75025e-05
2.59997e-08
1.75096e-05
4.49403e-08
1.75135e-05
6.02056e-08
1.75122e-05
5.76837e-08
1.75107e-05
4.71739e-08
1.7513e-05
4.24841e-08
1.75178e-05
4.42481e-08
1.7523e-05
4.70804e-08
1.75256e-05
4.6886e-08
4.30881e-08
1.75269e-05
1.83696e-05
-7.72259e-09
1.83609e-05
-3.18162e-08
1.83505e-05
-7.29325e-08
1.83581e-05
-2.89982e-08
1.83603e-05
1.38964e-08
1.83479e-05
-1.77856e-08
1.83413e-05
-3.64984e-08
1.83455e-05
-1.74829e-09
1.83467e-05
3.15711e-08
1.83419e-05
3.13457e-08
1.83413e-05
2.66436e-08
1.83471e-05
3.91126e-08
1.83527e-05
5.45768e-08
1.83536e-05
5.68229e-08
1.8352e-05
4.88041e-08
1.83528e-05
4.16013e-08
1.83564e-05
4.07245e-08
1.83611e-05
4.23647e-08
1.8365e-05
4.29953e-08
4.12983e-08
1.83668e-05
1.92471e-05
-8.43685e-09
1.92407e-05
-2.54242e-08
1.92299e-05