/*--------------------------------*- C++ -*----------------------------------*\
| =========                 |                                                 |
| \\      /  F ield         | OpenFOAM: The Open Source CFD Toolbox           |
|  \\    /   O peration     | Version:  2106                                  |
|   \\  /    A nd           | Website:  www.openfoam.com                      |
|    \\/     M anipulation  |                                                 |
\*---------------------------------------------------------------------------*/
FoamFile
{
    version     2.0;
    format      ascii;
    arch        "LSB;label=32;scalar=64";
    class       surfaceScalarField;
    location    "0.935";
    object      phi;
}
// * * * * * * * * * * * * * * * * * * * * * * * * * * * * * * * * * * * * * //

dimensions      [0 3 -1 0 0 0 0];

oriented        oriented;

internalField   nonuniform List<scalar> 
19000
(
1.18266e-06
-2.53074e-07
1.16549e-06
5.18792e-07
1.15069e-06
-8.18729e-07
1.1909e-06
4.30682e-07
1.22332e-06
-5.86982e-07
1.20644e-06
5.06527e-07
1.18672e-06
1.56801e-07
1.17388e-06
3.93612e-07
1.1827e-06
3.56118e-09
1.17784e-06
-2.31149e-07
1.20151e-06
-1.46263e-07
1.17841e-06
-3.61595e-07
1.19742e-06
-1.90865e-07
1.19236e-06
-1.67972e-08
1.19759e-06
-1.76896e-07
1.18824e-06
8.63764e-09
1.19627e-06
1.1434e-07
1.18472e-06
1.06236e-07
1.17948e-06
1.34446e-07
1.04354e-07
1.15112e-06
1.23941e-06
-2.6822e-07
1.22659e-06
5.31606e-07
1.21344e-06
-8.05579e-07
1.25372e-06
3.90402e-07
1.28709e-06
-6.20346e-07
1.27214e-06
5.21476e-07
1.24907e-06
1.79868e-07
1.24074e-06
4.01947e-07
1.24287e-06
1.42806e-09
1.24021e-06
-2.28491e-07
1.25784e-06
-1.63889e-07
1.24023e-06
-3.43986e-07
1.25201e-06
-2.02646e-07
1.25849e-06
-2.32774e-08
1.25382e-06
-1.7223e-07
1.25746e-06
4.99991e-09
1.24677e-06
1.25031e-07
1.25762e-06
9.53924e-08
1.22544e-06
1.66618e-07
9.39614e-08
1.23584e-06
1.29686e-06
-2.82297e-07
1.29138e-06
5.37089e-07
1.27828e-06
-7.92483e-07
1.31942e-06
3.49265e-07
1.34943e-06
-6.50352e-07
1.34438e-06
5.26522e-07
1.31523e-06
2.09017e-07
1.31159e-06
4.05586e-07
1.30436e-06
8.66241e-09
1.30474e-06
-2.28871e-07
1.31351e-06
-1.72663e-07
1.30564e-06
-3.36112e-07
1.30831e-06
-2.05317e-07
1.32363e-06
-3.86004e-08
1.31231e-06
-1.60904e-07
1.32004e-06
-2.73536e-09
1.30895e-06
1.36125e-07
1.31529e-06
8.90517e-08
1.29698e-06
1.84925e-07
1.05612e-07
1.28533e-06
1.35562e-06
-2.93819e-07
1.3565e-06
5.36218e-07
1.34351e-06
-7.79498e-07
1.38279e-06
3.09987e-07
1.40774e-06
-6.75301e-07
1.41306e-06
5.21197e-07
1.38186e-06
2.40222e-07
1.37881e-06
4.08631e-07
1.36508e-06
2.23905e-08
1.36591e-06
-2.29697e-07
1.3686e-06
-1.75354e-07
1.36684e-06
-3.34355e-07
1.36707e-06
-2.05543e-07
1.38218e-06
-5.37143e-08
1.37318e-06
-1.51898e-07
1.37842e-06
-7.97456e-09
1.37456e-06
1.39976e-07
1.37482e-06
8.87973e-08
1.36578e-06
1.93961e-07
1.22446e-07
1.34895e-06
1.41632e-06
-3.01789e-07
1.42101e-06
5.31531e-07
1.40877e-06
-7.67259e-07
1.44299e-06
2.75767e-07
1.46225e-06
-6.94558e-07
1.47462e-06
5.08822e-07
1.4466e-06
2.6825e-07
1.4417e-06
4.13525e-07
1.42603e-06
3.80628e-08
1.42546e-06
-2.29128e-07
1.42528e-06
-1.75175e-07
1.42571e-06
-3.34788e-07
1.427e-06
-2.0683e-07
1.43888e-06
-6.55947e-08
1.43345e-06
-1.4647e-07
1.43812e-06
-1.26408e-08
1.43827e-06
1.39822e-07
1.43714e-06
8.99323e-08
1.43146e-06
1.99639e-07
1.39064e-07
1.41484e-06
1.47998e-06
-3.06092e-07
1.48583e-06
5.25681e-07
1.4752e-06
-7.56626e-07
1.50237e-06
2.48599e-07
1.5157e-06
-7.07892e-07
1.53085e-06
4.93671e-07
1.50938e-06
2.89724e-07
1.50341e-06
4.19494e-07
1.48918e-06
5.22936e-08
1.48732e-06
-2.27275e-07
1.48597e-06
-1.73822e-07
1.48665e-06
-3.35467e-07
1.48842e-06
-2.08595e-07
1.49765e-06
-7.48274e-08
1.49365e-06
-1.42475e-07
1.49894e-06
-1.79217e-08
1.50083e-06
1.37926e-07
1.49923e-06
9.15342e-08
1.49618e-06
2.02692e-07
1.55076e-07
1.48016e-06
1.54749e-06
-3.07369e-07
1.55296e-06
5.20215e-07
1.54435e-06
-7.48015e-07
1.56435e-06
2.286e-07
1.57144e-06
-7.14989e-07
1.58608e-06
4.79036e-07
1.57186e-06
3.03946e-07
1.56729e-06
4.24057e-07
1.55615e-06
6.34395e-08
1.55396e-06
-2.25085e-07
1.55207e-06
-1.71934e-07
1.5522e-06
-3.35598e-07
1.55299e-06
-2.09388e-07
1.56046e-06
-8.22933e-08
1.55635e-06
-1.38371e-07
1.56126e-06
-2.28296e-08
1.56406e-06
1.3513e-07
1.56162e-06
9.39706e-08
1.56095e-06
2.03362e-07
1.70053e-07
1.54597e-06
1.61931e-06
-3.06551e-07
1.62417e-06
5.1536e-07
1.61727e-06
-7.41118e-07
1.63145e-06
2.14424e-07
1.6321e-06
-7.15646e-07
1.64449e-06
4.66651e-07
1.63649e-06
3.11942e-07
1.63544e-06
4.25108e-07
1.62776e-06
7.11214e-08
1.62596e-06
-2.23287e-07
1.62373e-06
-1.69703e-07
1.62295e-06
-3.34815e-07
1.62202e-06
-2.08457e-07
1.62808e-06
-8.83606e-08
1.62337e-06
-1.33656e-07
1.62665e-06
-2.61167e-08
1.62985e-06
1.31938e-07
1.62637e-06
9.74488e-08
1.62756e-06
2.02175e-07
1.83578e-07
1.61403e-06
1.69546e-06
-3.0444e-07
1.70024e-06
5.10586e-07
1.69425e-06
-7.35129e-07
1.70451e-06
2.04161e-07
1.69908e-06
-7.10218e-07
1.70887e-06
4.5686e-07
1.70552e-06
3.15296e-07
1.70878e-06
4.21848e-07
1.70413e-06
7.5769e-08
1.70298e-06
-2.22129e-07
1.70039e-06
-1.67114e-07
1.69855e-06
-3.32981e-07
1.69587e-06
-2.05775e-07
1.70058e-06
-9.30656e-08
1.69532e-06
-1.28396e-07
1.6964e-06
-2.72013e-08
1.69974e-06
1.286e-07
1.69526e-06
1.0193e-07
1.69775e-06
1.99681e-07
1.95391e-07
1.68594e-06
1.77585e-06
-3.01566e-07
1.78115e-06
5.05282e-07
1.77515e-06
-7.29126e-07
1.78321e-06
1.96102e-07
1.77272e-06
-6.99729e-07
1.78054e-06
4.4904e-07
1.78034e-06
3.15492e-07
1.7876e-06
4.14593e-07
1.7851e-06
7.82635e-08
1.78447e-06
-2.215e-07
1.78143e-06
-1.64071e-07
1.77854e-06
-3.30091e-07
1.77446e-06
-2.01691e-07
1.77775e-06
-9.63576e-08
1.77223e-06
-1.22879e-07
1.77112e-06
-2.60924e-08
1.7746e-06
1.25119e-07
1.76932e-06
1.07213e-07
1.77261e-06
1.96389e-07
2.0528e-07
1.76272e-06
1.86042e-06
-2.98234e-07
1.86661e-06
4.99089e-07
1.85982e-06
-7.22338e-07
1.86684e-06
1.89078e-07
1.85268e-06
-6.8556e-07
1.85964e-06
4.42076e-07
1.86144e-06
3.13693e-07
1.87183e-06
4.04204e-07
1.87049e-06
7.95982e-08
1.87012e-06
-2.21126e-07
1.86654e-06
-1.60491e-07
1.86264e-06
-3.26199e-07
1.85762e-06
-1.96665e-07
1.85949e-06
-9.82255e-08
1.85404e-06
-1.17437e-07
1.85105e-06
-2.3094e-08
1.85476e-06
1.21407e-07
1.849e-06
1.1297e-07
1.85259e-06
1.92804e-07
2.13038e-07
1.84483e-06
1.94922e-06
-2.94618e-07
1.95644e-06
4.91877e-07
1.94833e-06
-7.14231e-07
1.95495e-06
1.82457e-07
1.93841e-06
-6.69021e-07
1.94567e-06
4.34817e-07
1.94863e-06
3.10734e-07
1.96125e-06
3.91588e-07
1.96023e-06
8.06171e-08
1.95982e-06
-2.20721e-07
1.95567e-06
-1.5634e-07
1.95084e-06
-3.21363e-07
1.94531e-06
-1.91144e-07
1.9458e-06
-9.87104e-08
1.94074e-06
-1.12378e-07
1.93625e-06
-1.85995e-08
1.94022e-06
1.17432e-07
1.93441e-06
1.18786e-07
1.93779e-06
1.89421e-07
2.18514e-07
1.93231e-06
2.04238e-06
-2.90812e-07
2.05064e-06
4.83624e-07
2.04092e-06
-7.04514e-07
2.04742e-06
1.75956e-07
2.02947e-06
-6.51067e-07
2.03791e-06
4.26375e-07
2.04146e-06
3.07177e-07
2.05561e-06
3.77445e-07
2.05434e-06
8.18878e-08
2.0537e-06
-2.20081e-07
2.04901e-06
-1.51652e-07
2.04326e-06
-3.15618e-07
2.03763e-06
-1.85507e-07
2.03679e-06
-9.78723e-08
2.03235e-06
-1.07936e-07
2.02676e-06
-1.30137e-08
2.0309e-06
1.13293e-07
2.02548e-06
1.24212e-07
2.02824e-06
1.86652e-07
2.21689e-07
2.02507e-06
2.14004e-06
-2.86846e-07
2.14932e-06
4.74337e-07
2.1379e-06
-6.93093e-07
2.14441e-06
1.69443e-07
2.12558e-06
-6.32232e-07
2.13571e-06
4.16247e-07
2.13949e-06
3.03395e-07
2.15472e-06
3.62211e-07
2.15292e-06
8.36942e-08
2.15193e-06
-2.19096e-07
2.14681e-06
-1.46528e-07
2.14015e-06
-3.08965e-07
2.13471e-06
-1.80066e-07
2.13261e-06
-9.57664e-08
2.1289e-06
-1.04226e-07
2.12262e-06
-6.74069e-09
2.12668e-06
1.09239e-07
2.12208e-06
1.28811e-07
2.124e-06
1.84734e-07
2.22751e-07
2.12293e-06
2.24235e-06
-2.82706e-07
2.25265e-06
4.64034e-07
2.23958e-06
-6.80023e-07
2.24621e-06
1.62815e-07
2.2267e-06
-6.12719e-07
2.23867e-06
4.04278e-07
2.24242e-06
2.99637e-07
2.25851e-06
3.46121e-07
2.25611e-06
8.60969e-08
2.25474e-06
-2.1772e-07
2.24934e-06
-1.4113e-07
2.24175e-06
-3.01377e-07
2.23674e-06
-1.75058e-07
2.23342e-06
-9.24495e-08
2.23042e-06
-1.01218e-07
2.22386e-06
-1.86264e-10
2.22747e-06
1.05632e-07
2.22405e-06
1.32228e-07
2.22511e-06
1.83681e-07
2.22097e-07
2.22576e-06
2.34952e-06
-2.78351e-07
2.36081e-06
4.52745e-07
2.34623e-06
-6.65441e-07
2.3531e-06
1.55946e-07
2.33291e-06
-5.92531e-07
2.34664e-06
3.90545e-07
2.3502e-06
2.96075e-07
2.36703e-06
3.29292e-07
2.36412e-06
8.901e-08
2.36233e-06
-2.15931e-07
2.35686e-06
-1.3566e-07
2.3483e-06
-2.92815e-07
2.34389e-06
-1.70652e-07
2.33945e-06
-8.80096e-08
2.33698e-06
-9.87456e-08
2.33054e-06
6.25929e-09
2.33331e-06
1.02857e-07
2.33128e-06
1.34259e-07
2.33164e-06
1.83323e-07
2.20236e-07
2.3335e-06
2.46178e-06
-2.73732e-07
2.47401e-06
4.40508e-07
2.45807e-06
-6.49501e-07
2.46532e-06
1.487e-07
2.44439e-06
-5.71602e-07
2.45969e-06
3.75243e-07
2.46295e-06
2.92822e-07
2.48044e-06
3.11802e-07
2.47718e-06
9.22658e-08
2.47494e-06
-2.13694e-07
2.46963e-06
-1.30347e-07
2.46005e-06
-2.83233e-07
2.45634e-06
-1.66944e-07
2.45092e-06
-8.25938e-08
2.4487e-06
-9.65231e-08
2.44273e-06
1.22299e-08
2.44436e-06
1.01224e-07
2.44372e-06
1.34907e-07
2.44368e-06
1.83354e-07
2.17699e-07
2.44622e-06
2.57937e-06
-2.68806e-07
2.59251e-06
4.27363e-07
2.57536e-06
-6.32345e-07
2.5831e-06
1.4096e-07
2.56136e-06
-5.49869e-07
2.57801e-06
3.58594e-07
2.58089e-06
2.89943e-07
2.59895e-06
2.93741e-07
2.59556e-06
9.56606e-08
2.5928e-06
-2.10941e-07
2.58787e-06
-1.25417e-07
2.57724e-06
-2.72603e-07
2.57424e-06
-1.63944e-07
2.56807e-06
-7.64189e-08
2.56575e-06
-9.42036e-08
2.56056e-06
1.74234e-08
2.5609e-06
1.00877e-07
2.5614e-06
1.34409e-07
2.56139e-06
1.83364e-07
2.14952e-07
2.56414e-06
2.70256e-06
-2.63542e-07
2.71658e-06
4.13346e-07
2.69832e-06
-6.14084e-07
2.70663e-06
1.32646e-07
2.68408e-06
-5.27313e-07
2.70186e-06
3.40812e-07
2.70435e-06
2.8745e-07
2.72286e-06
2.75233e-07
2.71954e-06
9.89785e-08
2.71617e-06
-2.07567e-07
2.71182e-06
-1.21072e-07
2.70015e-06
-2.60932e-07
2.69778e-06
-1.61573e-07
2.69112e-06
-6.97605e-08
2.68835e-06
-9.14314e-08
2.68414e-06
2.16309e-08
2.68327e-06
1.01755e-07
2.68449e-06
1.3319e-07
2.68493e-06
1.82916e-07
2.12327e-07
2.68756e-06
2.83165e-06
-2.57921e-07
2.8465e-06
3.98493e-07
2.82722e-06
-5.94805e-07
2.83614e-06
1.23727e-07
2.81279e-06
-5.03964e-07
2.83152e-06
3.22082e-07
2.83367e-06
2.85303e-07
2.85247e-06
2.56433e-07
2.84944e-06
1.02006e-07
2.84532e-06
-2.03444e-07
2.84172e-06
-1.17469e-07
2.82906e-06
-2.48279e-07
2.82716e-06
-1.59671e-07
2.82033e-06
-6.29277e-08
2.81678e-06
-8.7885e-08
2.81365e-06
2.47626e-08
2.81178e-06
1.03628e-07
2.81324e-06
1.31731e-07
2.8145e-06
1.81653e-07
2.09967e-07
2.81686e-06
2.96691e-06
-2.51931e-07
2.98256e-06
3.82837e-07
2.96235e-06
-5.7459e-07
2.97185e-06
1.14221e-07
2.94778e-06
-4.79896e-07
2.9673e-06
3.02569e-07
2.96919e-06
2.83412e-07
2.9881e-06
2.37524e-07
2.98557e-06
1.04537e-07
2.98056e-06
-1.98435e-07
2.97779e-06
-1.14706e-07
2.96428e-06
-2.34762e-07
2.96262e-06
-1.58016e-07
2.95592e-06
-5.62294e-08
2.95135e-06
-8.33134e-08
2.94926e-06
2.68562e-08
2.94674e-06
1.06147e-07
2.94802e-06
1.30453e-07
2.95027e-06
1.79394e-07
2.07808e-07
2.95243e-06
3.10865e-06
-2.45571e-07
3.12507e-06
3.66418e-07
3.104e-06
-5.53521e-07
3.11403e-06
1.0419e-07
3.08935e-06
-4.55221e-07
3.10948e-06
2.82437e-07
3.11124e-06
2.81656e-07
3.13007e-06
2.187e-07
3.12822e-06
1.06385e-07
3.12221e-06
-1.92424e-07
3.12031e-06
-1.12809e-07
3.1061e-06
-2.20554e-07
3.10443e-06
-1.56342e-07
3.09814e-06
-4.9942e-08
3.09239e-06
-7.75638e-08
3.09119e-06
2.80617e-08
3.0884e-06
1.08929e-07
3.08922e-06
1.29636e-07
3.09245e-06
1.76166e-07
2.05619e-07
3.09464e-06
3.25718e-06
-2.38846e-07
3.27432e-06
3.49286e-07
3.25249e-06
-5.31699e-07
3.26296e-06
9.37283e-08
3.23781e-06
-4.30074e-07
3.2584e-06
2.61851e-07
3.26017e-06
2.79886e-07
3.27871e-06
2.00159e-07
3.2777e-06
1.07388e-07
3.27061e-06
-1.85332e-07
3.26954e-06
-1.11742e-07
3.25486e-06
-2.05871e-07
3.2529e-06
-1.54377e-07
3.24723e-06
-4.42768e-08
3.24027e-06
-7.05987e-08
3.23971e-06
2.86202e-08
3.23703e-06
1.11607e-07
3.23726e-06
1.29402e-07
3.24125e-06
1.72177e-07
2.0309e-07
3.24378e-06
3.41285e-06
-2.31765e-07
3.43063e-06
3.31504e-07
3.40818e-06
-5.09242e-07
3.41895e-06
8.29571e-08
3.39349e-06
-4.04617e-07
3.41435e-06
2.40989e-07
3.41629e-06
2.7795e-07
3.43436e-06
1.82086e-07
3.43433e-06
1.07422e-07
3.42613e-06
-1.7714e-07
3.4258e-06
-1.11411e-07
3.41088e-06
-1.90946e-07
3.40836e-06
-1.51858e-07
3.40346e-06
-3.93744e-08
3.39531e-06
-6.24552e-08
3.39514e-06
2.87939e-08
3.39288e-06
1.1387e-07
3.39254e-06
1.2974e-07
3.39698e-06
1.67733e-07
1.9995e-07
3.40012e-06
3.57599e-06
-2.24344e-07
3.59434e-06
3.1315e-07
3.57139e-06
-4.8629e-07
3.58233e-06
7.20182e-08
3.55674e-06
-3.79024e-07
3.5777e-06
2.20029e-07
3.57994e-06
2.75706e-07
3.59738e-06
1.64645e-07
3.59841e-06
1.06399e-07
3.58915e-06
-1.67881e-07
3.58941e-06
-1.11673e-07
3.57447e-06
-1.76005e-07
3.57119e-06
-1.48577e-07
3.56708e-06
-3.52687e-08
3.55789e-06
-5.32664e-08
3.55781e-06
2.88792e-08
3.55623e-06
1.15451e-07
3.55543e-06
1.30535e-07
3.56002e-06
1.6315e-07
1.96061e-07
3.56391e-06
3.74697e-06
-2.16605e-07
3.7658e-06
2.94319e-07
3.74251e-06
-4.63005e-07
3.75347e-06
6.10651e-08
3.72792e-06
-3.53476e-07
3.7488e-06
1.99149e-07
3.75147e-06
2.73032e-07
3.76814e-06
1.47976e-07
3.77027e-06
1.04264e-07
3.76002e-06
-1.5763e-07
3.76072e-06
-1.12368e-07
3.74596e-06
-1.61251e-07
3.74175e-06
-1.44364e-07
3.73842e-06
-3.19377e-08
3.72841e-06
-4.32525e-08
3.72808e-06
2.92088e-08
3.72739e-06
1.16135e-07
3.72631e-06
1.31623e-07
3.73078e-06
1.58674e-07
1.91443e-07
3.7354e-06
3.92616e-06
-2.08574e-07
3.94535e-06
2.75122e-07
3.92192e-06
-4.39567e-07
3.93273e-06
5.02543e-08
3.9074e-06
-3.28146e-07
3.92804e-06
1.78507e-07
3.93123e-06
2.69838e-07
3.94701e-06
1.32198e-07
3.95029e-06
1.00984e-07
3.93912e-06
-1.46461e-07
3.9401e-06
-1.13349e-07
3.92572e-06
-1.46869e-07
3.92043e-06
-1.39067e-07
3.91779e-06
-2.93066e-08
3.90724e-06
-3.26985e-08
3.90636e-06
3.00878e-08
3.90669e-06
1.15802e-07
3.90552e-06
1.32796e-07
3.90972e-06
1.54477e-07
1.86213e-07
3.91495e-06
4.11396e-06
-2.00284e-07
4.1334e-06
2.55683e-07
4.11e-06
-4.16166e-07
4.12052e-06
3.97337e-08
4.09556e-06
-3.03188e-07
4.11583e-06
1.58234e-07
4.11961e-06
2.66061e-07
4.13439e-06
1.17416e-07
4.13884e-06
9.65316e-08
4.12683e-06
-1.34443e-07
4.12795e-06
-1.1447e-07
4.11414e-06
-1.33065e-07
4.10758e-06
-1.32502e-07
4.10555e-06
-2.72805e-08
4.0948e-06
-2.19488e-08
4.09314e-06
3.17475e-08
4.09447e-06
1.14473e-07
4.09345e-06
1.33812e-07
4.09725e-06
1.50683e-07
1.80504e-07
4.10296e-06
4.31079e-06
-1.91767e-07
4.33033e-06
2.36136e-07
4.30717e-06
-3.93e-07
4.31727e-06
2.96282e-08
4.29281e-06
-2.78722e-07
4.31261e-06
1.38431e-07
4.317e-06
2.61669e-07
4.33068e-06
1.03733e-07
4.33633e-06
9.08846e-08
4.32354e-06
-1.21656e-07
4.32461e-06
-1.15534e-07
4.31163e-06
-1.20091e-07
4.30359e-06
-1.24457e-07
4.30201e-06
-2.57023e-08
4.29151e-06
-1.14434e-08
4.28895e-06
3.43052e-08
4.2911e-06
1.1232e-07
4.2905e-06
1.34418e-07
4.2938e-06
1.47374e-07
1.74439e-07
4.29987e-06
4.51707e-06
-1.83063e-07
4.53658e-06
2.16623e-07
4.51384e-06
-3.70255e-07
4.52345e-06
2.00209e-08
4.49954e-06
-2.54815e-07
4.51881e-06
1.19161e-07
4.52384e-06
2.56639e-07
4.53631e-06
9.12669e-08
4.54318e-06
8.40112e-08
4.52973e-06
-1.08207e-07
4.53043e-06
-1.16237e-07
4.5186e-06
-1.08261e-07
4.50888e-06
-1.14735e-07
4.50753e-06
-2.43533e-08
4.49774e-06
-1.65473e-09
4.49434e-06
3.77078e-08
4.49701e-06
1.09653e-07
4.49704e-06
1.34387e-07
4.49985e-06
1.44559e-07
1.6818e-07
4.50611e-06
4.73326e-06
-1.7421e-07
4.7526e-06
1.97283e-07
4.73043e-06
-3.48088e-07
4.73953e-06
1.09255e-08
4.7162e-06
-2.31486e-07
4.73488e-06
1.00482e-07
4.74059e-06
2.50932e-07
4.75169e-06
8.01605e-08
4.75981e-06
7.58905e-08
4.74587e-06
-9.42634e-08
4.74579e-06
-1.16154e-07
4.73543e-06
-9.78993e-08
4.72407e-06
-1.03376e-07
4.72253e-06
-2.28175e-08
4.71391e-06
6.96622e-09
4.70986e-06
4.17593e-08
4.71266e-06
1.0685e-07
4.71348e-06
1.33565e-07
4.7159e-06
1.42146e-07
1.61947e-07
4.72213e-06
4.95983e-06
-1.65242e-07
4.97887e-06
1.78242e-07
4.95738e-06
-3.26595e-07
4.96604e-06
2.26616e-09
4.94325e-06
-2.087e-07
4.96127e-06
8.24614e-08
4.96773e-06
2.44474e-07
4.9773e-06
7.05864e-08
4.98665e-06
6.6542e-08
4.97248e-06
-8.00885e-08
4.97108e-06
-1.14757e-07
4.96243e-06
-8.925e-08
4.94978e-06
-9.07304e-08
4.9476e-06
-2.06291e-08
4.94039e-06
1.41701e-08
4.93602e-06
4.61346e-08
4.93862e-06
1.04252e-07
4.94023e-06
1.31951e-07
4.94245e-06
1.39929e-07
1.55982e-07
4.94841e-06
5.19727e-06
-1.56192e-07
5.21591e-06
1.596e-07
5.19512e-06
-3.05806e-07
5.20351e-06
-6.1217e-09
5.1812e-06
-1.86389e-07
5.19845e-06
6.52056e-08
5.20577e-06
2.37152e-07
5.21363e-06
6.27255e-08
5.22411e-06
5.60671e-08
5.21006e-06
-6.60436e-08
5.20684e-06
-1.11536e-07
5.19992e-06
-8.23234e-08
5.1866e-06
-7.74123e-08
5.18338e-06
-1.74112e-08
5.17761e-06
1.99398e-08
5.17329e-06
5.04553e-08
5.17547e-06
1.02075e-07
5.17771e-06
1.29708e-07
5.17998e-06
1.37656e-07
1.50442e-07
5.18553e-06
5.44608e-06
-1.47088e-07
5.46427e-06
1.4142e-07
5.44412e-06
-2.85661e-07
5.45249e-06
-1.44858e-08
5.43059e-06
-1.6449e-07
5.4469e-06
4.88917e-08
5.45528e-06
2.28776e-07
5.46121e-06
5.67929e-08
5.47259e-06
4.46877e-08
5.45916e-06
-5.26163e-08
5.45375e-06
-1.06129e-07
5.44825e-06
-7.68207e-08
5.43502e-06
-6.41797e-08
5.43061e-06
-1.3006e-08
5.42605e-06
2.45058e-08
5.42213e-06
5.4375e-08
5.42385e-06
1.00351e-07
5.42645e-06
1.27114e-07
5.42896e-06
1.35145e-07
1.45326e-07
5.43407e-06
5.70682e-06
-1.37949e-07
5.72452e-06
1.23719e-07
5.70489e-06
-2.66029e-07
5.71347e-06
-2.30714e-08
5.69202e-06
-1.43032e-07
5.70712e-06
3.37837e-08
5.71681e-06
2.19085e-07
5.72062e-06
5.29836e-08
5.73251e-06
3.28053e-08
5.72023e-06
-4.03422e-08
5.71253e-06
-9.843e-08
5.70797e-06
-7.22625e-08
5.69557e-06
-5.17778e-08
5.69002e-06
-7.45704e-09
5.68623e-06
2.8297e-08
5.68297e-06
5.76328e-08
5.68436e-06
9.89649e-08
5.68703e-06
1.24442e-07
5.68982e-06
1.32359e-07
1.40505e-07
5.69464e-06
5.98004e-06
-1.28792e-07
5.99728e-06
1.06477e-07
5.97796e-06
-2.46714e-07
5.98694e-06
-3.20456e-08
5.9661e-06
-1.22196e-07
5.97965e-06
2.02327e-08
5.99092e-06
2.07812e-07
5.99257e-06
5.1342e-08
6.0043e-06
2.10697e-08
5.99371e-06
-2.97504e-08
5.98389e-06
-8.86135e-08
5.97972e-06
-6.80876e-08
5.96871e-06
-4.07658e-08
5.96226e-06
-1.00857e-09
5.95882e-06
3.17398e-08
5.95631e-06
6.01421e-08
5.95755e-06
9.77216e-08
5.96015e-06
1.21843e-07
5.96309e-06
1.29413e-07
1.35824e-07
5.96778e-06
6.26632e-06
-1.19626e-07
6.28315e-06
8.96541e-08
6.26397e-06
-2.27539e-07
6.27332e-06
-4.13981e-08
6.25351e-06
-1.02384e-07
6.26505e-06
8.69175e-09
6.27807e-06
1.94794e-07
6.27774e-06
5.16678e-08
6.28856e-06
1.02483e-08
6.27997e-06
-2.11577e-08
6.2685e-06
-7.714e-08
6.26418e-06
-6.37683e-08
6.25487e-06
-3.14522e-08
6.2479e-06
5.95764e-09
6.24448e-06
3.51567e-08
6.24266e-06
6.19651e-08
6.24396e-06
9.64222e-08
6.24646e-06
1.19338e-07
6.2494e-06
1.26476e-07
1.31218e-07
6.25401e-06
6.56631e-06
-1.10467e-07
6.58274e-06
7.3227e-08
6.56362e-06
-2.08417e-07
6.57312e-06
-5.09065e-08
6.55498e-06
-8.42399e-08
6.56399e-06
-3.14949e-10
6.57869e-06
1.80094e-07
6.5769e-06
5.34562e-08
6.58597e-06
1.17405e-09
6.57947e-06
-1.4651e-08
6.56705e-06
-6.47218e-08
6.56221e-06
-5.89315e-08
6.55456e-06
-2.37993e-08
6.54752e-06
1.29909e-08
6.54393e-06
3.87511e-08
6.54264e-06
6.32529e-08
6.54415e-06
9.49193e-08
6.54663e-06
1.16857e-07
6.54943e-06
1.23676e-07
1.26744e-07
6.5539e-06
6.88066e-06
-1.01332e-07
6.89667e-06
5.72106e-08
6.87765e-06
-1.89398e-07
6.88692e-06
-6.01711e-08
6.87122e-06
-6.8547e-08
6.87724e-06
-6.33223e-09
6.8932e-06
1.64132e-07
6.89075e-06
5.59123e-08
6.8974e-06
-5.48061e-09
6.89287e-06
-1.012e-08
6.88031e-06
-5.21597e-08
6.87466e-06
-5.32828e-08
6.86842e-06
-1.75575e-08
6.86171e-06
1.96986e-08
6.85787e-06
4.25959e-08
6.85692e-06
6.42021e-08
6.85871e-06
9.3129e-08
6.86127e-06
1.14293e-07
6.86391e-06
1.2104e-07
1.22546e-07
6.86811e-06
7.21005e-06
-9.22486e-08
7.22557e-06
4.16973e-08
7.20687e-06
-1.70702e-07
7.21535e-06
-6.86495e-08
7.20291e-06
-5.61106e-08
7.20572e-06
-9.13578e-09
7.22216e-06
1.47685e-07
7.21994e-06
5.8136e-08
7.2239e-06
-9.43857e-09
7.22088e-06
-7.10375e-09
7.20886e-06
-4.01377e-08
7.20238e-06
-4.67998e-08
7.19717e-06
-1.23551e-08
7.19107e-06
2.58025e-08
7.187e-06
4.66646e-08
7.18619e-06
6.50157e-08
7.18828e-06
9.1039e-08
7.19103e-06
1.11535e-07
7.19358e-06
1.18493e-07
1.18771e-07
7.19736e-06
7.55523e-06
-8.32563e-08
7.57007e-06
2.68598e-08
7.55206e-06
-1.52693e-07
7.55913e-06
-7.57224e-08
7.5505e-06
-4.7479e-08
7.55034e-06
-8.97227e-09
7.56633e-06
1.31699e-07
7.565e-06
5.94634e-08
7.56652e-06
-1.09648e-08
7.5643e-06
-4.87766e-09
7.55321e-06
-2.90497e-08
7.54608e-06
-3.96703e-08
7.5416e-06
-7.87721e-09
7.53627e-06
3.11351e-08
7.53207e-06
5.08679e-08
7.53121e-06
6.58727e-08
7.53354e-06
8.87082e-08
7.53657e-06
1.08508e-07
7.53917e-06
1.15891e-07
1.15475e-07
7.54247e-06
7.91697e-06
-7.44126e-08
7.93095e-06
1.28737e-08
7.91403e-06
-1.35771e-07
7.91905e-06
-8.07361e-08
7.91425e-06
-4.26879e-08
7.912e-06
-6.71432e-09
7.92659e-06
1.17109e-07
7.92644e-06
5.96073e-08
7.92615e-06
-1.06744e-08
7.9241e-06
-2.8288e-09
7.91397e-06
-1.89173e-08
7.90645e-06
-3.21538e-08
7.90252e-06
-3.94592e-09
7.89802e-06
3.564e-08
7.89383e-06
5.50573e-08
7.89278e-06
6.692e-08
7.89523e-06
8.62561e-08
7.89856e-06
1.05178e-07
7.90137e-06
1.13085e-07
1.1255e-07
7.90429e-06
8.29606e-06
-6.57899e-08
8.30906e-06
-1.32227e-10
8.29358e-06
-1.20287e-07
8.2959e-06
-8.30548e-08
8.29458e-06
-4.13646e-08
8.29152e-06
-3.66164e-09
8.30391e-06
1.04722e-07
8.30482e-06
5.8698e-08
8.30345e-06
-9.30344e-09
8.30127e-06
-6.49532e-10
8.29192e-06
-9.57285e-09
8.28418e-06
-2.4409e-08
8.28069e-06
-4.5513e-10
8.27706e-06
3.92673e-08
8.27308e-06
5.90389e-08
8.27175e-06
6.82511e-08
8.27416e-06
8.3847e-08
8.27777e-06
1.01563e-07
8.28086e-06
1.10001e-07
1.09759e-07
8.28365e-06
8.69334e-06
-5.74729e-08
8.70527e-06
-1.20559e-08
8.6915e-06
-1.06515e-07
8.69073e-06
-8.22856e-08
8.69215e-06
-4.27836e-08
8.68966e-06
-1.17319e-09
8.69938e-06
9.50031e-08
8.70082e-06
5.72547e-08
8.69902e-06
-7.49928e-09
8.6967e-06
1.66439e-09
8.68799e-06
-8.61817e-10
8.68007e-06
-1.64844e-08
8.67686e-06
2.7502e-09
8.6742e-06
4.19327e-08
8.6706e-06
6.26307e-08
8.66897e-06
6.98805e-08
8.67118e-06
8.16426e-08
8.67502e-06
9.77175e-08
8.67838e-06
1.0665e-07
1.06853e-07
8.68128e-06
9.10971e-06
-4.95603e-08
9.12039e-06
-2.27439e-08
9.10857e-06
-9.46899e-08
9.10478e-06
-7.8494e-08
9.10781e-06
-4.58208e-08
9.10707e-06
-4.24513e-10
9.11411e-06
8.79579e-08
9.11533e-06
5.60329e-08
9.11346e-06
-5.62428e-09
9.11128e-06
3.84624e-09
9.10315e-06
7.26251e-09
9.09495e-06
-8.28659e-09
9.09191e-06
5.79075e-09
9.09022e-06
4.36257e-08
9.08721e-06
6.56445e-08
9.08538e-06
7.17086e-08
9.08719e-06
7.98334e-08
9.09119e-06
9.37147e-08
9.09476e-06
1.0308e-07
1.03709e-07
9.0979e-06
9.54606e-06
-4.21601e-08
9.55535e-06
-3.20363e-08
9.54561e-06
-8.49468e-08
9.53924e-06
-7.21222e-08
9.54257e-06
-4.9155e-08
9.54426e-06
-2.11316e-09
9.54924e-06
8.29794e-08
9.54942e-06
5.58489e-08
9.54753e-06
-3.73633e-09
9.5458e-06
5.57687e-09
9.53838e-06
1.4685e-08
9.52989e-06
2.07925e-10
9.52676e-06
8.91695e-09
9.52595e-06
4.44335e-08
9.52374e-06
6.7862e-08
9.52188e-06
7.35621e-08
9.52316e-06
7.85603e-08
9.52718e-06
8.96877e-08
9.53097e-06
9.92883e-08
1.00393e-07
9.53429e-06
1.00034e-05
-3.53925e-08
1.00111e-05
-3.97437e-08
1.00035e-05
-7.73511e-08
9.99519e-06
-6.38358e-08
9.99755e-06
-5.15151e-08
1.00018e-05
-6.36966e-09
1.00058e-05
7.89805e-08
1.00044e-05
5.72097e-08
1.00022e-05
-1.47818e-09
1.00011e-05
6.68091e-09
9.99459e-06
2.11804e-08
9.98597e-06
8.82881e-09
9.98242e-06
1.24687e-08
9.98231e-06
4.45393e-08
9.98106e-06
6.91101e-08
9.97939e-06
7.52333e-08
9.98012e-06
7.78316e-08
9.98393e-06
8.58804e-08
9.98801e-06
9.52043e-08
9.70319e-08
9.99137e-06
1.04826e-05
-2.93805e-08
1.04885e-05
-4.56491e-08
1.04831e-05
-7.19187e-08
1.04736e-05
-5.43844e-08
1.0474e-05
-5.18679e-08
1.04804e-05
-1.27722e-08
1.04847e-05
7.46568e-08
1.04818e-05
6.01404e-08
1.04785e-05
1.79458e-09
1.0478e-05
7.22513e-09
1.04727e-05
2.64188e-08
1.04642e-05
1.73509e-08
1.046e-05
1.66538e-08
1.04603e-05
4.4242e-08
1.04601e-05
6.9364e-08
1.04589e-05
7.64557e-08
1.04592e-05
7.75278e-08
1.04625e-05
8.25628e-08
1.04668e-05
9.08388e-08
9.36326e-08
1.04702e-05
1.09849e-05
-2.42443e-08
1.09887e-05
-4.95153e-08
1.09854e-05
-6.86137e-08
1.09756e-05
-4.458e-08
1.09733e-05
-4.95266e-08
1.0981e-05
-2.04269e-08
1.09868e-05
6.88313e-08
1.09827e-05
6.42275e-08
1.09778e-05
6.6695e-09
1.09775e-05
7.53371e-09
1.09738e-05
3.01744e-08
1.09657e-05
2.54188e-08
1.09608e-05
2.15447e-08
1.09612e-05
4.38557e-08
1.09617e-05
6.8798e-08
1.09612e-05
7.70027e-08
1.09613e-05
7.74012e-08
1.0964e-05
7.98995e-08
1.09684e-05
8.63812e-08
9.00428e-08
1.0972e-05
1.15112e-05
-2.00769e-08
1.15128e-05
-5.11662e-08
1.15115e-05
-6.72321e-08
1.15022e-05
-3.53102e-08
1.1497e-05
-4.42834e-08
1.15045e-05
-2.7954e-08
1.15127e-05
6.06183e-08
1.15083e-05
6.86419e-08
1.15015e-05
1.3472e-08
1.15008e-05
8.22004e-09
1.14985e-05
3.24236e-08
1.14914e-05
3.25825e-08
1.14859e-05
2.69853e-08
1.1486e-05
4.38025e-08
1.14873e-05
6.75302e-08
1.14874e-05
7.6865e-08
1.14876e-05
7.71463e-08
1.14897e-05
7.78598e-08
1.14939e-05
8.217e-08
8.61082e-08
1.14978e-05
1.20627e-05
-1.6918e-08
1.20621e-05
-5.05835e-08
1.20622e-05
-6.73035e-08
1.20543e-05
-2.74354e-08
1.20465e-05
-3.65083e-08
1.20522e-05
-3.36972e-08
1.20631e-05
4.97657e-08
1.20597e-05
7.20758e-08
1.20509e-05
2.22127e-08
1.20491e-05
1.00643e-08
1.20482e-05
3.33368e-08
1.20423e-05
3.84235e-08
1.20366e-05
3.26928e-08
1.2036e-05
4.43915e-08
1.20378e-05
6.5761e-08
1.20386e-05
7.60891e-08
1.20391e-05
7.65789e-08
1.20408e-05
7.6192e-08
1.20445e-05
7.85112e-08
8.18672e-08
1.20487e-05
1.26404e-05
-1.47399e-08
1.26378e-05
-4.79883e-08
1.26386e-05
-6.81155e-08
1.26328e-05
-2.16367e-08
1.26233e-05
-2.69693e-08
1.26257e-05
-3.61498e-08
1.26388e-05
3.67427e-08
1.26376e-05
7.32844e-08
1.26275e-05
3.22434e-08
1.26239e-05
1.37236e-08
1.26238e-05
3.34328e-08
1.26196e-05
4.26222e-08
1.26139e-05
3.8325e-08
1.26127e-05
4.56056e-08
1.26146e-05
6.39308e-08
1.2616e-05
7.46561e-08
1.26169e-05
7.56781e-08
1.26185e-05
7.46054e-08
1.26215e-05
7.54818e-08
7.76e-08
1.26258e-05
1.32456e-05
-1.34442e-08
1.32415e-05
-4.38824e-08
1.32422e-05
-6.88065e-08
1.32388e-05
-1.82283e-08
1.32285e-05
-1.6653e-08
1.32271e-05
-3.47869e-08
1.32406e-05
2.32448e-08
1.32427e-05
7.11963e-08
1.32325e-05
4.2441e-08
1.32268e-05
1.94549e-08
1.32267e-05
3.34845e-08
1.32241e-05
4.52534e-08
1.32192e-05
4.32436e-08
1.32173e-05
4.74853e-08
1.32189e-05
6.22942e-08
1.32209e-05
7.27487e-08
1.32222e-05
7.43745e-08
1.32238e-05
7.29386e-08
1.32264e-05
7.28985e-08
7.36612e-08
1.32303e-05
1.38796e-05
-1.28643e-08
1.38745e-05
-3.88395e-08
1.38743e-05
-6.86121e-08
1.38732e-05
-1.71171e-08
1.38632e-05
-6.62175e-09
1.38583e-05
-2.98574e-08
1.387e-05
1.15534e-08
1.38758e-05
6.53177e-08
1.38669e-05
5.13792e-08
1.38593e-05
2.70341e-08
1.38585e-05
3.42691e-08
1.38572e-05
4.65695e-08
1.38534e-05
4.70621e-08
1.38512e-05
4.96748e-08
1.38524e-05
6.11121e-08
1.38545e-05
7.06159e-08
1.38562e-05
7.26839e-08
1.38581e-05
7.10863e-08
1.38605e-05
7.04868e-08
7.02497e-08
1.38639e-05
1.45436e-05
-1.27919e-08
1.45381e-05
-3.33459e-08
1.45365e-05
-6.70018e-08
1.45372e-05
-1.78139e-08
1.45285e-05
2.04292e-09
1.45207e-05
-2.20466e-08
1.45289e-05
3.31337e-09
1.45379e-05
5.64003e-08
1.45317e-05
5.75682e-08
1.45229e-05
3.57641e-08
1.45208e-05
3.64391e-08
1.45204e-05
4.6928e-08
1.45177e-05
4.98006e-08
1.45157e-05
5.16706e-08
1.45164e-05
6.0396e-08
1.45185e-05
6.85205e-08
1.45205e-05
7.07175e-08
1.45225e-05
6.90393e-08
1.4525e-05
6.7995e-08
6.73081e-08
1.45279e-05
1.52391e-05
-1.29843e-08
1.52336e-05
-2.78728e-08
1.52302e-05
-6.36167e-08
1.52321e-05
-1.97332e-08
1.52254e-05
8.73688e-09
1.52159e-05
-1.24914e-08
1.52199e-05
-6.65749e-10
1.52301e-05
4.61725e-08
1.52276e-05
6.0088e-08
1.52189e-05
4.44221e-08
1.52153e-05
4.00531e-08
1.5215e-05
4.72146e-08
1.52136e-05
5.12622e-08
1.52119e-05
5.33229e-08
1.52124e-05
5.98971e-08
1.52144e-05
6.65683e-08
1.52164e-05
6.86615e-08
1.52186e-05
6.68795e-08
1.52212e-05
6.53712e-08
6.45618e-08
1.52239e-05
1.59675e-05
-1.31901e-08
1.59625e-05
-2.28115e-08
1.59572e-05
-5.83481e-08
1.59596e-05
-2.21509e-08
1.59552e-05
1.31962e-08
1.59451e-05
-2.46811e-09
1.59451e-05
-5.75083e-10
1.59544e-05
3.67793e-08
1.59556e-05
5.89775e-08
1.59485e-05
5.15207e-08
1.59436e-05
4.48782e-08
1.59429e-05
4.79872e-08
1.59423e-05
5.18017e-08
1.59413e-05
5.43231e-08
1.59417e-05
5.94956e-08
1.59436e-05
6.47036e-08
1.59457e-05
6.65488e-08
1.59478e-05
6.47678e-08
1.59505e-05
6.26891e-08
6.17629e-08
1.59533e-05
1.67306e-05
-1.32008e-08
1.67263e-05
-1.84645e-08
1.67193e-05
-5.14142e-08
1.67212e-05
-2.40471e-08
1.67191e-05
1.53467e-08
1.67097e-05
6.95731e-09
1.67064e-05
2.72452e-09
1.67133e-05
2.98119e-08
1.67171e-05
5.51667e-08
1.67126e-05
5.60734e-08
1.67073e-05
5.01632e-08
1.67059e-05
4.94301e-08
1.67056e-05
5.20606e-08
1.67054e-05
5.45005e-08
1.67059e-05
5.89878e-08
1.67077e-05
6.29734e-08
1.67099e-05
6.43032e-08
1.6712e-05
6.27013e-08
1.67145e-05
6.01198e-08
5.88294e-08
1.67175e-05
1.753e-05
-1.28877e-08
1.75267e-05
-1.5086e-08
1.75185e-05
-4.32699e-08
1.7519e-05
-2.45324e-08
1.75188e-05
1.55352e-08
1.75107e-05
1.50593e-08
1.75052e-05
8.20225e-09
1.75093e-05
2.5797e-08
1.75142e-05
5.01877e-08
1.75124e-05
5.79198e-08
1.75079e-05
5.46911e-08
1.75056e-05
5.17089e-08
1.75054e-05
5.22674e-08
1.75056e-05
5.42514e-08
1.75066e-05
5.79999e-08
1.75082e-05
6.13832e-08
1.75105e-05
6.20102e-08
1.75127e-05
6.05008e-08
1.75151e-05
5.77222e-08
5.58679e-08
1.75181e-05
1.83677e-05
-1.22118e-08
1.83652e-05
-1.26046e-08
1.83566e-05
-3.46407e-08
1.83552e-05
-2.31877e-08
1.83561e-05
1.46166e-08
1.83499e-05
2.12991e-08
1.83434e-05
1.47309e-08
1.83445e-05
2.46228e-08
1.83492e-05
4.5528e-08
1.83496e-05
5.74925e-08
1.83465e-05
5.77957e-08
1.8344e-05
5.42614e-08
1.83434e-05
5.27896e-08
1.83439e-05
5.3774e-08
1.83452e-05
5.67041e-08
1.83471e-05
5.95524e-08
1.83492e-05
5.98687e-08
1.83516e-05
5.81071e-08
1.83539e-05
5.53743e-08
5.30146e-08
1.83568e-05
1.92454e-05