/*--------------------------------*- C++ -*----------------------------------*\
| =========                 |                                                 |
| \\      /  F ield         | OpenFOAM: The Open Source CFD Toolbox           |
|  \\    /   O peration     | Version:  2106                                  |
|   \\  /    A nd           | Website:  www.openfoam.com                      |
|    \\/     M anipulation  |                                                 |
\*---------------------------------------------------------------------------*/
FoamFile
{
    version     2.0;
    format      ascii;
    arch        "LSB;label=32;scalar=64";
    class       surfaceScalarField;
    location    "0.085";
    object      phi;
}
// * * * * * * * * * * * * * * * * * * * * * * * * * * * * * * * * * * * * * //

dimensions      [0 3 -1 0 0 0 0];

oriented        oriented;

internalField   nonuniform List<scalar> 
19000
(
1.1836e-06
-5.11934e-07
1.15239e-06
1.15431e-06
1.18963e-06
-1.4533e-06
1.16157e-06
9.37835e-07
1.17797e-06
-5.3695e-08
1.17737e-06
-7.45139e-07
1.17672e-06
8.73146e-08
1.16248e-06
4.24321e-07
1.17457e-06
-2.97076e-08
1.16735e-06
-4.99357e-07
1.17704e-06
-1.65064e-07
1.16122e-06
7.18644e-08
1.16671e-06
2.92969e-07
1.15852e-06
8.49476e-08
1.16178e-06
-1.01094e-07
1.14611e-06
-3.29206e-07
1.17532e-06
2.39256e-08
1.14256e-06
-7.76057e-08
1.13943e-06
-4.48084e-08
7.56751e-08
1.11973e-06
1.23982e-06
-5.27493e-07
1.21139e-06
1.18274e-06
1.2499e-06
-1.49181e-06
1.226e-06
9.61739e-07
1.23949e-06
-6.71938e-08
1.23342e-06
-7.39061e-07
1.23064e-06
9.00854e-08
1.22557e-06
4.294e-07
1.23137e-06
-3.55094e-08
1.22415e-06
-4.92138e-07
1.23028e-06
-1.71197e-07
1.22315e-06
7.89998e-08
1.21772e-06
2.98392e-07
1.22324e-06
7.94315e-08
1.21545e-06
-9.33063e-08
1.20908e-06
-3.22835e-07
1.22004e-06
1.29681e-08
1.21666e-06
-7.42249e-08
1.18072e-06
-8.8686e-09
5.36658e-08
1.20273e-06
1.29643e-06
-5.41142e-07
1.27541e-06
1.20376e-06
1.30797e-06
-1.52437e-06
1.29728e-06
9.72428e-07
1.30136e-06
-7.12779e-08
1.29399e-06
-7.31689e-07
1.28886e-06
9.52114e-08
1.29246e-06
4.25801e-07
1.29077e-06
-3.38191e-08
1.28572e-06
-4.87089e-07
1.28556e-06
-1.71037e-07
1.28681e-06
7.77527e-08
1.27772e-06
3.07484e-07
1.28739e-06
6.97614e-08
1.27668e-06
-8.26006e-08
1.27222e-06
-3.18371e-07
1.27853e-06
6.65399e-09
1.28118e-06
-7.68753e-08
1.25375e-06
1.85661e-08
5.76654e-08
1.24975e-06
1.35472e-06
-5.51759e-07
1.3422e-06
1.21629e-06
1.36521e-06
-1.54738e-06
1.3676e-06
9.70033e-07
1.36212e-06
-6.57949e-08
1.35527e-06
-7.24838e-07
1.35157e-06
9.89164e-08
1.35984e-06
4.17525e-07
1.35246e-06
-2.64364e-08
1.34758e-06
-4.82213e-07
1.34501e-06
-1.68466e-07
1.34971e-06
7.30524e-08
1.34535e-06
3.11849e-07
1.35116e-06
6.39489e-08
1.34239e-06
-7.38346e-08
1.3351e-06
-3.11074e-07
1.34021e-06
1.53547e-09
1.34295e-06
-7.96069e-08
1.32692e-06
3.45963e-08
7.14999e-08
1.31308e-06
1.41539e-06
-5.58792e-07
1.41101e-06
1.22066e-06
1.42265e-06
-1.55903e-06
1.43455e-06
9.58141e-07
1.42321e-06
-5.44557e-08
1.41648e-06
-7.18113e-07
1.41718e-06
9.82144e-08
1.42664e-06
4.08073e-07
1.41665e-06
-1.64541e-08
1.40968e-06
-4.7524e-07
1.40767e-06
-1.66459e-07
1.41363e-06
6.70973e-08
1.41501e-06
3.10469e-07
1.41705e-06
6.19091e-08
1.40909e-06
-6.58783e-08
1.39966e-06
-3.01638e-07
1.40243e-06
-1.2349e-09
1.40428e-06
-8.14588e-08
1.39628e-06
4.25999e-08
8.68576e-08
1.38092e-06
1.47924e-06
-5.62361e-07
1.48161e-06
1.2183e-06
1.48219e-06
-1.5596e-06
1.49909e-06
9.41235e-07
1.48693e-06
-4.22884e-08
1.47899e-06
-7.10172e-07
1.48376e-06
9.34408e-08
1.49344e-06
3.9839e-07
1.48351e-06
-6.52575e-09
1.47408e-06
-4.65801e-07
1.4725e-06
-1.64884e-07
1.47924e-06
6.03597e-08
1.48437e-06
3.05338e-07
1.48493e-06
6.13452e-08
1.47703e-06
-5.79734e-08
1.46637e-06
-2.90983e-07
1.46736e-06
-2.22452e-09
1.4668e-06
-8.09008e-08
1.46464e-06
4.47661e-08
1.01326e-07
1.45017e-06
1.54693e-06
-5.63076e-07
1.55429e-06
1.21094e-06
1.54562e-06
-1.55093e-06
1.56422e-06
9.22632e-07
1.55474e-06
-3.28002e-08
1.54471e-06
-7.00142e-07
1.55103e-06
8.71168e-08
1.5615e-06
3.87924e-07
1.5533e-06
1.66681e-09
1.54223e-06
-4.54731e-07
1.53983e-06
-1.62478e-07
1.5467e-06
5.34878e-08
1.55404e-06
2.97997e-07
1.55472e-06
6.06643e-08
1.54737e-06
-5.0619e-08
1.53579e-06
-2.79412e-07
1.53613e-06
-2.55847e-09
1.53237e-06
-7.71449e-08
1.53377e-06
4.3373e-08
1.14088e-07
1.521e-06
1.61879e-06
-5.61734e-07
1.62959e-06
1.20014e-06
1.61404e-06
-1.53538e-06
1.63282e-06
9.03847e-07
1.62698e-06
-2.6956e-08
1.6149e-06
-6.88066e-07
1.62051e-06
8.15154e-08
1.63225e-06
3.76183e-07
1.62643e-06
7.48433e-09
1.61461e-06
-4.42914e-07
1.61065e-06
-1.5852e-07
1.6169e-06
4.72366e-08
1.62562e-06
2.89278e-07
1.62707e-06
5.92145e-08
1.62089e-06
-4.44307e-08
1.60843e-06
-2.66958e-07
1.60895e-06
-3.07937e-09
1.60216e-06
-7.03564e-08
1.60515e-06
4.03894e-08
1.25124e-07
1.59411e-06
1.69488e-06
-5.59037e-07
1.708e-06
1.18701e-06
1.68772e-06
-1.5151e-06
1.70651e-06
8.85058e-07
1.70349e-06
-2.39324e-08
1.68999e-06
-6.74566e-07
1.69397e-06
7.75309e-08
1.70694e-06
3.63215e-07
1.70325e-06
1.11693e-08
1.69117e-06
-4.30829e-07
1.68575e-06
-1.53097e-07
1.69103e-06
4.19535e-08
1.70065e-06
2.79653e-07
1.70281e-06
5.70548e-08
1.69803e-06
-3.96516e-08
1.68462e-06
-2.53546e-07
1.68582e-06
-4.2815e-09
1.67667e-06
-6.11995e-08
1.67999e-06
3.70679e-08
1.34665e-07
1.67045e-06
1.77516e-06
-5.5547e-07
1.78993e-06
1.17224e-06
1.76645e-06
-1.49163e-06
1.78564e-06
8.65873e-07
1.78407e-06
-2.23593e-08
1.76986e-06
-6.60358e-07
1.77237e-06
7.50208e-08
1.78624e-06
3.49345e-07
1.78401e-06
1.34022e-08
1.77179e-06
-4.18614e-07
1.7654e-06
-1.46708e-07
1.76978e-06
3.75698e-08
1.78006e-06
2.69379e-07
1.78249e-06
5.46238e-08
1.77906e-06
-3.6224e-08
1.76461e-06
-2.3909e-07
1.76666e-06
-6.33751e-09
1.75593e-06
-5.04668e-08
1.75894e-06
3.40594e-08
1.42786e-07
1.75082e-06
1.85958e-06
-5.51301e-07
1.87568e-06
1.15613e-06
1.84991e-06
-1.46586e-06
1.86993e-06
8.45853e-07
1.86868e-06
-2.11059e-08
1.8543e-06
-6.45982e-07
1.85579e-06
7.35309e-08
1.87026e-06
3.34875e-07
1.86882e-06
1.48444e-08
1.85645e-06
-4.06244e-07
1.84961e-06
-1.39869e-07
1.85331e-06
3.38743e-08
1.86413e-06
2.58556e-07
1.86634e-06
5.24123e-08
1.86411e-06
-3.39869e-08
1.8486e-06
-2.23581e-07
1.85142e-06
-9.15885e-09
1.83983e-06
-3.88763e-08
1.84215e-06
3.17387e-08
1.49298e-07
1.83564e-06
1.94819e-06
-5.46649e-07
1.96548e-06
1.13884e-06
1.93787e-06
-1.43825e-06
1.95902e-06
8.24705e-07
1.9574e-06
-1.94868e-08
1.94319e-06
-6.31771e-07
1.94401e-06
7.27129e-08
1.95889e-06
3.1999e-07
1.95781e-06
1.5923e-08
1.94523e-06
-3.93657e-07
1.93831e-06
-1.32948e-07
1.94147e-06
3.07163e-08
1.95283e-06
2.47193e-07
1.95446e-06
5.07833e-08
1.95326e-06
-3.27876e-08
1.9368e-06
-2.07126e-07
1.94012e-06
-1.24768e-08
1.92828e-06
-2.70344e-08
1.92957e-06
3.045e-08
1.53851e-07
1.92501e-06
2.04109e-06
-5.41549e-07
2.05954e-06
1.12039e-06
2.03028e-06
-1.40899e-06
2.05271e-06
8.02276e-07
2.05038e-06
-1.71607e-08
2.03651e-06
-6.17902e-07
2.03683e-06
7.23987e-08
2.05204e-06
3.04782e-07
2.05112e-06
1.68369e-08
2.03826e-06
-3.80797e-07
2.03148e-06
-1.2617e-07
2.03415e-06
2.80557e-08
2.04608e-06
2.35259e-07
2.04692e-06
4.99402e-08
2.04662e-06
-3.24879e-08
2.02944e-06
-1.89945e-07
2.03288e-06
-1.59146e-08
2.02131e-06
-1.54663e-08
2.02124e-06
3.05202e-08
1.56161e-07
2.01893e-06
2.13845e-06
-5.36001e-07
2.15807e-06
1.10077e-06
2.12721e-06
-1.37813e-06
2.151e-06
7.78493e-07
2.14781e-06
-1.39768e-08
2.13438e-06
-6.04471e-07
2.13424e-06
7.25359e-08
2.14972e-06
2.893e-07
2.14892e-06
1.76425e-08
2.13574e-06
-3.67615e-07
2.12924e-06
-1.19677e-07
2.13137e-06
2.59289e-08
2.1439e-06
2.22727e-07
2.14389e-06
4.99573e-08
2.14433e-06
-3.29309e-08
2.12673e-06
-1.72348e-07
2.12986e-06
-1.90387e-08
2.11904e-06
-4.65115e-09
2.11748e-06
3.20856e-08
1.56261e-07
2.11738e-06
2.24048e-06
-5.29992e-07
2.26129e-06
1.07996e-06
2.22884e-06
-1.34568e-06
2.254e-06
7.53326e-07
2.2499e-06
-9.8703e-09
2.23696e-06
-5.91535e-07
2.23638e-06
7.31163e-08
2.25209e-06
2.73593e-07
2.25141e-06
1.83225e-08
2.23785e-06
-3.5406e-07
2.23176e-06
-1.13581e-07
2.23328e-06
2.44049e-08
2.24642e-06
2.09592e-07
2.24556e-06
5.08104e-08
2.24654e-06
-3.39022e-08
2.22891e-06
-1.54723e-07
2.23125e-06
-2.1381e-08
2.22161e-06
4.99595e-09
2.21862e-06
3.50671e-08
1.5449e-07
2.22039e-06
2.34739e-06
-5.23503e-07
2.3694e-06
1.05794e-06
2.33536e-06
-1.31164e-06
2.36193e-06
7.26764e-07
2.35687e-06
-4.81293e-09
2.34446e-06
-5.79128e-07
2.34344e-06
7.41357e-08
2.35932e-06
2.5772e-07
2.35882e-06
1.88223e-08
2.34483e-06
-3.40071e-07
2.33923e-06
-1.07987e-07
2.34008e-06
2.35547e-08
2.35379e-06
1.95889e-07
2.3522e-06
5.23925e-08
2.35343e-06
-3.51233e-08
2.33619e-06
-1.37489e-07
2.33732e-06
-2.25096e-08
2.32914e-06
1.318e-08
2.32498e-06
3.9221e-08
1.51354e-07
2.32812e-06
2.45941e-06
-5.16517e-07
2.48266e-06
1.0347e-06
2.44702e-06
-1.276e-06
2.47498e-06
6.98811e-07
2.46896e-06
1.20511e-09
2.4571e-06
-5.67271e-07
2.45566e-06
7.55764e-08
2.47162e-06
2.41761e-07
2.47138e-06
1.9063e-08
2.45689e-06
-3.25581e-07
2.45189e-06
-1.02992e-07
2.45202e-06
2.34259e-08
2.4662e-06
1.81709e-07
2.46408e-06
5.45183e-08
2.46521e-06
-3.62521e-08
2.4488e-06
-1.21083e-07
2.44833e-06
-2.20424e-08
2.44177e-06
1.97446e-08
2.43683e-06
4.41632e-08
1.47418e-07
2.44076e-06
2.57679e-06
-5.09015e-07
2.60129e-06
1.0102e-06
2.56407e-06
-1.23879e-06
2.5934e-06
6.69483e-07
2.58642e-06
8.1793e-09
2.57512e-06
-5.55966e-07
2.5733e-06
7.73995e-08
2.58923e-06
2.25826e-07
2.58935e-06
1.89463e-08
2.57428e-06
-3.10517e-07
2.56997e-06
-9.86772e-08
2.56937e-06
2.4027e-08
2.58387e-06
1.67203e-07
2.58145e-06
5.69412e-08
2.58212e-06
-3.6922e-08
2.56692e-06
-1.05883e-07
2.5647e-06
-1.98185e-08
2.55964e-06
2.48054e-08
2.5544e-06
4.94008e-08
1.43199e-07
2.55862e-06
2.6998e-06
-5.00982e-07
2.72554e-06
9.84454e-07
2.68676e-06
-1.20001e-06
2.71744e-06
6.38808e-07
2.70953e-06
1.60906e-08
2.69876e-06
-5.45201e-07
2.69662e-06
7.95418e-08
2.7124e-06
2.10046e-07
2.71298e-06
1.83597e-08
2.69728e-06
-2.9481e-07
2.6937e-06
-9.5099e-08
2.69241e-06
2.53128e-08
2.70702e-06
1.52593e-07
2.7046e-06
5.93617e-08
2.70444e-06
-3.67628e-08
2.69074e-06
-9.21828e-08
2.68691e-06
-1.59802e-08
2.68293e-06
2.87866e-08
2.67791e-06
5.44142e-08
1.39079e-07
2.68203e-06
2.82869e-06
-4.92402e-07
2.85569e-06
9.57448e-07
2.81538e-06
-1.15969e-06
2.84736e-06
6.06831e-07
2.83854e-06
2.49037e-08
2.82828e-06
-5.34941e-07
2.82591e-06
8.1914e-08
2.84137e-06
1.94583e-07
2.84255e-06
1.71805e-08
2.82615e-06
-2.78405e-07
2.82332e-06
-9.22754e-08
2.82146e-06
2.71775e-08
2.8359e-06
1.38155e-07
2.8338e-06
6.14555e-08
2.83249e-06
-3.54456e-08
2.82045e-06
-8.01455e-08
2.81535e-06
-1.08866e-08
2.81191e-06
3.2229e-08
2.80755e-06
5.87801e-08
1.3525e-07
2.81138e-06
2.96375e-06
-4.83261e-07
2.99201e-06
9.29189e-07
2.95021e-06
-1.11789e-06
2.98343e-06
5.73612e-07
2.97376e-06
3.45652e-08
2.96396e-06
-5.25133e-07
2.96147e-06
8.43997e-08
2.97644e-06
1.79619e-07
2.97833e-06
1.52832e-08
2.9612e-06
-2.61269e-07
2.95909e-06
-9.01694e-08
2.95683e-06
2.94439e-08
2.97076e-06
1.24223e-07
2.96931e-06
6.29029e-08
2.96661e-06
-3.27454e-08
2.95619e-06
-6.97248e-08
2.95034e-06
-5.03255e-09
2.94696e-06
3.56001e-08
2.94347e-06
6.22762e-08
1.31711e-07
2.94701e-06
3.10529e-06
-4.73548e-07
3.13479e-06
8.9969e-07
3.09155e-06
-1.07465e-06
3.12594e-06
5.3923e-07
3.1155e-06
4.50021e-08
3.10607e-06
-5.15699e-07
3.10361e-06
8.68556e-08
3.11787e-06
1.65355e-07
3.12061e-06
1.25481e-08
3.10275e-06
-2.43412e-07
3.10126e-06
-8.86839e-08
3.09883e-06
3.18789e-08
3.11191e-06
1.11147e-07
3.11137e-06
6.34393e-08
3.10726e-06
-2.86362e-08
3.09815e-06
-6.06133e-08
3.09212e-06
9.92088e-10
3.0885e-06
3.92207e-08
3.08585e-06
6.49262e-08
1.28301e-07
3.08926e-06
3.25362e-06
-4.63254e-07
3.28433e-06
8.68972e-07
3.23974e-06
-1.03005e-06
3.27518e-06
5.03783e-07
3.26407e-06
5.61195e-08
3.2549e-06
-5.06537e-07
3.25265e-06
8.91143e-08
3.266e-06
1.52005e-07
3.26967e-06
8.87495e-09
3.25115e-06
-2.24887e-07
3.25012e-06
-8.76588e-08
3.2478e-06
3.4196e-08
3.25966e-06
9.92867e-08
3.26022e-06
6.28796e-08
3.25485e-06
-2.32666e-08
3.24662e-06
-5.2378e-08
3.24092e-06
6.69414e-09
3.23698e-06
4.31534e-08
3.23496e-06
6.69485e-08
1.24828e-07
3.23843e-06
3.40905e-06
-4.52372e-07
3.44095e-06
8.37067e-07
3.39509e-06
-9.84188e-07
3.43148e-06
4.67392e-07
3.4198e-06
6.77995e-08
3.41079e-06
-4.97518e-07
3.40892e-06
9.09841e-08
3.42114e-06
1.39784e-07
3.42582e-06
4.19342e-09
3.40674e-06
-2.05814e-07
3.40595e-06
-8.68616e-08
3.40407e-06
3.60689e-08
3.4144e-06
8.89658e-08
3.41609e-06
6.1186e-08
3.4098e-06
-1.69752e-08
3.40195e-06
-4.45346e-08
3.39692e-06
1.17255e-08
3.3928e-06
4.72739e-08
3.39113e-06
6.8626e-08
1.21183e-07
3.39477e-06
3.57194e-06
-4.40901e-07
3.60499e-06
8.0402e-07
3.55797e-06
-9.37172e-07
3.59516e-06
4.30199e-07
3.58306e-06
7.98999e-08
3.57404e-06
-4.88492e-07
3.57277e-06
9.22548e-08
3.58365e-06
1.28903e-07
3.58937e-06
-1.52839e-09
3.56993e-06
-1.86372e-07
3.56906e-06
-8.59984e-08
3.56797e-06
3.71631e-08
3.57651e-06
8.04216e-08
3.57921e-06
5.8485e-08
3.57248e-06
-1.02369e-08
3.5646e-06
-3.66602e-08
3.56035e-06
1.59737e-08
3.55633e-06
5.1295e-08
3.55475e-06
7.0208e-08
1.17378e-07
3.55855e-06
3.74265e-06
-4.28841e-07
3.77678e-06
7.69887e-07
3.72874e-06
-8.89133e-07
3.76657e-06
3.92373e-07
3.75421e-06
9.22535e-08
3.745e-06
-4.79279e-07
3.74455e-06
9.27041e-08
3.7539e-06
1.1955e-07
3.76064e-06
-8.26426e-09
3.74108e-06
-1.66809e-07
3.73981e-06
-8.47321e-08
3.7398e-06
3.71774e-08
3.74647e-06
7.37454e-08
3.74987e-06
5.50869e-08
3.74321e-06
-3.57869e-09
3.73506e-06
-2.85057e-08
3.73147e-06
1.95586e-08
3.72788e-06
5.48872e-08
3.72627e-06
7.18176e-08
1.13524e-07
3.73012e-06
3.92155e-06
-4.162e-07
3.95669e-06
7.34739e-07
3.90779e-06
-8.40225e-07
3.94605e-06
3.54106e-07
3.93364e-06
1.04668e-07
3.92404e-06
-4.69679e-07
3.92464e-06
9.21063e-08
3.93231e-06
1.11879e-07
3.93997e-06
-1.59247e-08
3.9206e-06
-1.47442e-07
3.91857e-06
-8.26975e-08
3.91986e-06
3.5887e-08
3.92474e-06
6.88591e-08
3.92841e-06
5.14227e-08
3.92231e-06
2.52059e-09
3.91384e-06
-2.00371e-08
3.91064e-06
2.276e-08
3.90773e-06
5.78007e-08
3.90612e-06
7.34265e-08
1.09766e-07
3.90987e-06
4.10904e-06
-4.02989e-07
4.14512e-06
6.98661e-07
4.09551e-06
-7.90622e-07
4.134e-06
3.15617e-07
4.12175e-06
1.16924e-07
4.11154e-06
-4.59472e-07
4.11341e-06
9.02412e-08
4.11929e-06
1.05995e-07
4.12771e-06
-2.43457e-08
4.10891e-06
-1.28645e-07
4.10576e-06
-7.95401e-08
4.10846e-06
3.31801e-08
4.11181e-06
6.55099e-08
4.11523e-06
4.8005e-08
4.11007e-06
7.67648e-09
4.10143e-06
-1.13897e-08
4.0983e-06
2.58908e-08
4.09615e-06
5.99458e-08
4.09469e-06
7.48842e-08
1.06205e-07
4.09825e-06
4.30554e-06
-3.89225e-07
4.34245e-06
6.61755e-07
4.29235e-06
-7.40524e-07
4.33081e-06
2.77151e-07
4.31896e-06
1.28781e-07
4.30791e-06
-4.48421e-07
4.31124e-06
8.69079e-08
4.3153e-06
1.01936e-07
4.32425e-06
-3.32946e-08
4.30642e-06
-1.10823e-07
4.30186e-06
-7.49731e-08
4.30592e-06
2.91151e-08
4.30815e-06
6.32794e-08
4.31082e-06
4.53386e-08
4.30677e-06
1.1721e-08
4.2983e-06
-2.91681e-09
4.29493e-06
2.92631e-08
4.2935e-06
6.13733e-08
4.29239e-06
7.59959e-08
1.02877e-07
4.29572e-06
4.51148e-06
-3.74934e-07
4.5491e-06
6.2414e-07
4.49873e-06
-6.90154e-07
4.5369e-06
2.38979e-07
4.5257e-06
1.39976e-07
4.51357e-06
-4.36284e-07
4.51854e-06
8.19396e-08
4.5208e-06
9.96666e-08
4.52997e-06
-4.24597e-08
4.51354e-06
-9.4398e-08
4.50737e-06
-6.88006e-08
4.51257e-06
2.39212e-08
4.51422e-06
6.16276e-08
4.51572e-06
4.3836e-08
4.51271e-06
1.47359e-08
4.50488e-06
4.90842e-09
4.50108e-06
3.30603e-08
4.50016e-06
6.22924e-08
4.49957e-06
7.65896e-08
9.97452e-08
4.5027e-06
4.72733e-06
-3.60147e-07
4.76552e-06
5.85951e-07
4.71512e-06
-6.39757e-07
4.7527e-06
2.01397e-07
4.74245e-06
1.50233e-07
4.72899e-06
-4.22825e-07
4.73571e-06
7.52212e-08
4.73631e-06
9.90647e-08
4.74531e-06
-5.14663e-08
4.7307e-06
-7.97794e-08
4.72284e-06
-6.09422e-08
4.72879e-06
1.79715e-08
4.73042e-06
5.9994e-08
4.73054e-06
4.37178e-08
4.72828e-06
1.69978e-08
4.72151e-06
1.16782e-08
4.71733e-06
3.72409e-08
4.7166e-06
6.30221e-08
4.71661e-06
7.65775e-08
9.67135e-08
4.71964e-06
4.95355e-06
-3.44903e-07
4.99216e-06
5.47342e-07
4.94201e-06
-5.89602e-07
4.97868e-06
1.64719e-07
4.96966e-06
1.5926e-07
4.95466e-06
-4.0783e-07
4.96318e-06
6.67083e-08
4.96232e-06
9.99198e-08
4.97074e-06
-5.98887e-08
4.95829e-06
-6.7327e-08
4.94881e-06
-5.14576e-08
4.95502e-06
1.17569e-08
4.95715e-06
5.78596e-08
4.95589e-06
4.49831e-08
4.95394e-06
1.89443e-08
4.94854e-06
1.7079e-08
4.9442e-06
4.15824e-08
4.94333e-06
6.38952e-08
4.9439e-06
7.60048e-08
9.3653e-08
4.94696e-06
5.19066e-06
-3.29249e-07
5.22952e-06
5.08488e-07
5.17989e-06
-5.39978e-07
5.21533e-06
1.29278e-07
5.20782e-06
1.6677e-07
5.19112e-06
-3.91125e-07
5.20138e-06
5.64426e-08
5.19937e-06
1.01933e-07
5.20675e-06
-6.72688e-08
5.19674e-06
-5.73151e-08
5.18585e-06
-4.05711e-08
5.19177e-06
5.84092e-09
5.19479e-06
5.48355e-08
5.19237e-06
4.74054e-08
5.19026e-06
2.10582e-08
5.18633e-06
2.1007e-08
5.18222e-06
4.5696e-08
5.18094e-06
6.51686e-08
5.18189e-06
7.50548e-08
9.04566e-08
5.18509e-06
5.43918e-06
-3.13242e-07
5.47809e-06
4.69576e-07
5.4293e-06
-4.91189e-07
5.46317e-06
9.54147e-08
5.45745e-06
1.72485e-07
5.43892e-06
-3.72594e-07
5.4508e-06
4.45655e-08
5.44801e-06
1.04717e-07
5.45388e-06
-7.31362e-08
5.44647e-06
-4.99083e-08
5.43458e-06
-2.86722e-08
5.43957e-06
8.49513e-10
5.44374e-06
5.06615e-08
5.44058e-06
5.05686e-08
5.43784e-06
2.37969e-08
5.43527e-06
2.35799e-08
5.43185e-06
4.9115e-08
5.43008e-06
6.69403e-08
5.43111e-06
7.40172e-08
8.70771e-08
5.43449e-06
5.69966e-06
-2.96945e-07
5.73842e-06
4.30814e-07
5.69079e-06
-4.43556e-07
5.72273e-06
6.34726e-08
5.71907e-06
1.76149e-07
5.69866e-06
-3.5219e-07
5.71191e-06
3.13168e-08
5.7088e-06
1.07833e-07
5.71273e-06
-7.70707e-08
5.70793e-06
-4.51061e-08
5.69555e-06
-1.62881e-08
5.69907e-06
-2.67111e-09
5.70439e-06
4.53328e-08
5.70107e-06
5.38955e-08
5.69738e-06
2.74801e-08
5.69581e-06
2.51534e-08
5.69352e-06
5.1405e-08
5.69136e-06
6.91039e-08
5.69215e-06
7.32235e-08
8.35374e-08
5.69569e-06
5.97268e-06
-2.80431e-07
6.01107e-06
3.92422e-07
5.96492e-06
-3.97405e-07
5.99461e-06
3.37862e-08
5.99321e-06
1.77548e-07
5.97097e-06
-3.29958e-07
5.98525e-06
1.70435e-08
5.98229e-06
1.10788e-07
5.98395e-06
-7.87263e-08
5.98159e-06
-4.2748e-08
5.96934e-06
-4.03389e-09
5.97094e-06
-4.27757e-09
5.97724e-06
3.90383e-08
5.97434e-06
5.67922e-08
5.96962e-06
3.21958e-08
5.96853e-06
2.62486e-08
5.96763e-06
5.23001e-08
5.96541e-06
7.13295e-08
5.96567e-06
7.29659e-08
7.99437e-08
5.96926e-06
6.25884e-06
-2.63781e-07
6.29663e-06
3.54632e-07
6.25228e-06
-3.53061e-07
6.2794e-06
6.66897e-09
6.28043e-06
1.76521e-07
6.25651e-06
-3.06038e-07
6.27137e-06
2.17929e-09
6.26907e-06
1.13089e-07
6.26823e-06
-7.78847e-08
6.26798e-06
-4.24956e-08
6.2565e-06
7.44283e-09
6.25595e-06
-3.72635e-09
6.26281e-06
3.21809e-08
6.26089e-06
5.87081e-08
6.25529e-06
3.77993e-08
6.25409e-06
2.74457e-08
6.25461e-06
5.17841e-08
6.25281e-06
7.31275e-08
6.25236e-06
7.34142e-08
7.64969e-08
6.25581e-06
6.55877e-06
-2.47083e-07
6.59572e-06
3.17685e-07
6.5535e-06
-3.10843e-07
6.57777e-06
-1.75987e-08
6.58131e-06
1.72979e-07
6.55595e-06
-2.80675e-07
6.5709e-06
-1.27707e-08
6.56972e-06
1.14267e-07
6.5663e-06
-7.44656e-08
6.56769e-06
-4.38839e-08
6.55758e-06
1.75481e-08
6.55485e-06
-9.90464e-10
6.56173e-06
2.52959e-08
6.5612e-06
5.92462e-08
6.55507e-06
4.39264e-08
6.55327e-06
2.92478e-08
6.55493e-06
5.01162e-08
6.55409e-06
7.39751e-08
6.55297e-06
7.45335e-08
7.34803e-08
6.55598e-06
6.87314e-06
-2.30431e-07
6.909e-06
2.81826e-07
6.86921e-06
-2.71052e-07
6.89039e-06
-3.87847e-08
6.89645e-06
1.66918e-07
6.87e-06
-2.5422e-07
6.88447e-06
-2.72437e-08
6.88483e-06
1.13905e-07
6.87893e-06
-6.85633e-08
6.88135e-06
-4.63065e-08
6.87315e-06
2.57474e-08
6.86842e-06
3.74262e-09
6.87472e-06
1.8999e-08
6.87575e-06
5.82112e-08
6.86962e-06
5.00618e-08
6.86689e-06
3.19728e-08
6.86923e-06
4.77803e-08
6.86973e-06
7.34768e-08
6.86822e-06
7.60382e-08
7.12091e-08
6.87049e-06
7.20263e-06
-2.13923e-07
7.23716e-06
2.47296e-07
7.20007e-06
-2.33959e-07
7.218e-06
-5.67202e-08
7.22648e-06
1.58444e-07
7.19936e-06
-2.27108e-07
7.21281e-06
-4.06903e-08
7.21502e-06
1.11698e-07
7.2069e-06
-6.04461e-08
7.20968e-06
-4.90883e-08
7.20377e-06
3.16615e-08
7.19743e-06
1.00799e-08
7.20253e-06
1.38962e-08
7.20511e-06
5.56302e-08
7.19955e-06
5.56226e-08
7.19583e-06
3.56962e-08
7.19823e-06
4.5379e-08
7.20021e-06
7.14986e-08
7.19883e-06
7.74168e-08
6.99259e-08
7.20011e-06
7.54796e-06
-1.97662e-07
7.58093e-06
2.14328e-07
7.54677e-06
-1.99798e-07
7.56136e-06
-7.13091e-08
7.57204e-06
1.47762e-07
7.54478e-06
-1.99848e-07
7.55668e-06
-5.25877e-08
7.5609e-06
1.07475e-07
7.55099e-06
-5.05377e-08
7.55346e-06
-5.15512e-08
7.54999e-06
3.51228e-08
7.54263e-06
1.74452e-08
7.54604e-06
1.04852e-08
7.54991e-06
5.176e-08
7.54547e-06
6.00616e-08
7.54092e-06
4.02422e-08
7.5428e-06
4.35007e-08
7.54607e-06
6.82287e-08
7.54544e-06
7.80494e-08
6.96797e-08
7.54569e-06
7.9099e-06
-1.81749e-07
7.94108e-06
1.83145e-07
7.91004e-06
-1.68752e-07
7.92127e-06
-8.2542e-08
7.93385e-06
1.35186e-07
7.90699e-06
-1.72996e-07
7.91688e-06
-6.24726e-08
7.92314e-06
1.01217e-07
7.912e-06
-3.93999e-08
7.91352e-06
-5.30691e-08
7.91246e-06
3.61806e-08
7.90474e-06
2.51624e-08
7.90615e-06
9.07747e-09
7.91087e-06
4.70351e-08
7.90797e-06
6.29653e-08
7.90297e-06
4.52399e-08
7.9039e-06
4.25748e-08
7.90799e-06
6.41362e-08
7.90863e-06
7.74134e-08
7.02257e-08
7.90808e-06
8.28922e-06
-1.66286e-07
8.31842e-06
1.53942e-07
8.29062e-06
-1.40946e-07
8.29857e-06
-9.04937e-08
8.31265e-06
1.21104e-07
8.28676e-06
-1.47108e-07
8.29429e-06
-6.99957e-08
8.30242e-06
9.3086e-08
8.29069e-06
-2.76737e-08
8.29078e-06
-5.31599e-08
8.29185e-06
3.51108e-08
8.28448e-06
3.25356e-08
8.28382e-06
9.73096e-09
8.28884e-06
4.2016e-08
8.28768e-06
6.41288e-08
8.28271e-06
5.02054e-08
8.28251e-06
4.27765e-08
8.28681e-06
5.9838e-08
8.28893e-06
7.52971e-08
7.10208e-08
8.28813e-06
8.68675e-06
-1.51369e-07
8.7138e-06
1.2689e-07
8.68929e-06
-1.16441e-07
8.69413e-06
-9.53327e-08
8.70926e-06
1.05975e-07
8.68487e-06
-1.22719e-07
8.68981e-06
-7.49334e-08
8.69949e-06
8.34092e-08
8.68786e-06
-1.60468e-08
8.6862e-06
-5.14979e-08
8.68895e-06
3.23569e-08
8.68253e-06
3.8955e-08
8.68002e-06
1.22372e-08
8.68474e-06
3.72966e-08
8.68528e-06
6.3591e-08
8.68086e-06
5.46318e-08
8.67962e-06
4.40146e-08
8.68353e-06
5.59291e-08
8.68694e-06
7.18807e-08
7.13746e-08
8.68659e-06
9.10334e-06
-1.37089e-07
9.1281e-06
1.02124e-07
9.10689e-06
-9.52263e-08
9.10887e-06
-9.7312e-08
9.12455e-06
9.02964e-08
9.10212e-06
-1.0029e-07
9.1044e-06
-7.72171e-08
9.11518e-06
7.26323e-08
9.10428e-06
-5.14509e-09
9.10076e-06
-4.79825e-08
9.10463e-06
2.84877e-08
9.09964e-06
4.39443e-08
9.09568e-06
1.61985e-08
9.09958e-06
3.34012e-08
9.10156e-06
6.16087e-08
9.09811e-06
5.80825e-08
9.09613e-06
4.59927e-08
9.09922e-06
5.2834e-08
9.10345e-06
6.76514e-08
7.07083e-08
9.10412e-06
9.5399e-06
-1.23526e-07
9.56228e-06
7.97407e-08
9.54427e-06
-7.72189e-08
9.54372e-06
-9.67606e-08
9.55944e-06
7.45748e-08
9.53934e-06
-8.01858e-08
9.53906e-06
-7.69343e-08
9.5504e-06
6.12865e-08
9.54077e-06
4.48923e-09
9.5355e-06
-4.27165e-08
9.53986e-06
2.41337e-08
9.53658e-06
4.72232e-08
9.53169e-06
2.10817e-08
9.5344e-06
3.06941e-08
9.53742e-06
5.85852e-08
9.53524e-06
6.02709e-08
9.5329e-06
4.83268e-08
9.53501e-06
5.07231e-08
9.53945e-06
6.32137e-08
6.8782e-08
9.54138e-06
9.99736e-06
-1.10749e-07
1.00173e-05
5.97925e-08
1.00024e-05
-6.22699e-08
9.99966e-06
-9.4061e-08
1.00149e-05
5.92939e-08
9.99741e-06
-6.26541e-08
9.99479e-06
-7.43154e-08
1.00061e-05
4.99368e-08
9.99817e-06
1.24577e-08
9.99145e-06
-3.59951e-08
9.99568e-06
1.98994e-08
9.99417e-06
4.8738e-08
9.98894e-06
2.63051e-08
9.9903e-06
2.93399e-08
9.99389e-06
5.49949e-08
9.99306e-06
6.10966e-08
9.99077e-06
5.0622e-08
9.99197e-06
4.95249e-08
9.99609e-06
5.90929e-08
6.57614e-08
9.99911e-06
1.04767e-05
-9.88129e-08
1.04942e-05
4.22868e-08
1.04821e-05
-5.01662e-08
1.04777e-05
-8.9638e-08
1.04921e-05
4.48949e-08
1.04772e-05
-4.78148e-08
1.04726e-05
-6.97127e-08
1.04835e-05
3.91183e-08
1.04774e-05
1.85532e-08
1.04696e-05
-2.8271e-08
1.04732e-05
1.63055e-08
1.04733e-05
4.86526e-08
1.04683e-05
3.12986e-08
1.04684e-05
2.92884e-08
1.04721e-05
5.13187e-08
1.04725e-05
6.06412e-08
1.04706e-05
5.25343e-08
1.04711e-05
4.90195e-08
1.04746e-05
5.56074e-08
6.20888e-08
1.04783e-05
1.0979e-05
-8.77569e-08
1.09941e-05
2.71844e-08
1.09845e-05
-4.06431e-08
1.09788e-05
-8.3924e-08
1.0992e-05
3.17413e-08
1.09798e-05
-3.56539e-08
1.09737e-05
-6.35709e-08
1.09835e-05
2.92994e-08
1.09793e-05
2.27472e-08
1.09711e-05
-2.00554e-08
1.09737e-05
1.37053e-08
1.09751e-05
4.72878e-08
1.09707e-05
3.56114e-08
1.09697e-05
3.03019e-08
1.09731e-05
4.79681e-08
1.09746e-05
5.91288e-08
1.09733e-05
5.3804e-08
1.09734e-05
4.89438e-08
1.09762e-05
5.28363e-08
5.82705e-08
1.098e-05
1.15052e-05
-7.76042e-08
1.1518e-05
1.44028e-08
1.15107e-05
-3.33939e-08
1.15042e-05
-7.73463e-08
1.15158e-05
2.01114e-08
1.15062e-05
-2.60397e-08
1.1499e-05
-5.63795e-08
1.15075e-05
2.08357e-08
1.1505e-05
2.51808e-08
1.14968e-05
-1.18614e-08
1.14983e-05
1.2275e-08
1.15005e-05
4.50518e-08
1.14972e-05
3.89476e-08
1.14954e-05
3.20273e-08
1.14982e-05
4.52203e-08
1.15004e-05
5.68784e-08
1.14999e-05
5.42887e-08
1.14998e-05
4.90391e-08
1.1502e-05
5.06916e-08
5.46975e-08
1.15056e-05
1.20566e-05
-6.83611e-08
1.20672e-05
3.82009e-09
1.20619e-05
-2.80891e-08
1.20548e-05
-7.02958e-08
1.20647e-05
1.01795e-08
1.20574e-05
-1.87385e-08
1.20497e-05
-4.86264e-08
1.20566e-05
1.39544e-08
1.20556e-05
2.61159e-08
1.20479e-05
-4.1473e-09
1.20482e-05
1.2017e-08
1.20509e-05
4.23685e-08
1.20486e-05
4.11846e-08
1.20466e-05
3.40809e-08
1.20486e-05
4.31911e-08
1.20512e-05
5.42387e-08
1.20516e-05
5.39701e-08
1.20515e-05
4.90743e-08
1.20532e-05
4.90166e-08
5.15658e-08
1.20563e-05
1.26342e-05
-6.00177e-08
1.26428e-05
-4.72037e-09
1.26391e-05
-2.4386e-08
1.26319e-05
-6.31181e-08
1.26401e-05
2.01873e-09
1.26348e-05
-1.34377e-08
1.26269e-05
-4.07607e-08
1.26321e-05
8.73204e-09
1.26323e-05
2.59072e-08
1.26255e-05
2.72706e-09
1.26247e-05
1.27869e-08
1.26274e-05
3.96196e-08
1.26263e-05
4.23535e-08
1.26242e-05
3.61118e-08
1.26256e-05
4.18478e-08
1.26283e-05
5.15225e-08
1.26293e-05
5.29397e-08
1.26295e-05
4.8873e-08
1.26309e-05
4.7642e-08
4.89022e-08
1.26336e-05
1.32395e-05
-5.25461e-08
1.32461e-05
-1.14067e-08
1.32437e-05
-2.19455e-08
1.32367e-05
-5.60962e-08
1.32431e-05
-4.39386e-09
1.32394e-05
-9.78085e-09
1.32318e-05
-3.31603e-08
1.32355e-05
5.11803e-09
1.32364e-05
2.49155e-08
1.32306e-05
8.56435e-09
1.32291e-05
1.43262e-08
1.32316e-05
3.71011e-08
1.32313e-05
4.25982e-08
1.32296e-05
3.78458e-08
1.32304e-05
4.1056e-08
1.3233e-05
4.8959e-08
1.32345e-05
5.13654e-08
1.32351e-05
4.83279e-08
1.32363e-05
4.64165e-08
4.6633e-08
1.32386e-05
1.38735e-05
-4.591e-08
1.38786e-05
-1.64329e-08
1.38771e-05
-2.04547e-08
1.38704e-05
-4.94502e-08
1.38752e-05
-9.15323e-09
1.38728e-05
-7.40452e-09
1.38658e-05
-2.61117e-08
1.38679e-05
2.95468e-09
1.38693e-05
2.34938e-08
1.38646e-05
1.32797e-08
1.38626e-05
1.6339e-08
1.38647e-05
3.49983e-08
1.38652e-05
4.21299e-08
1.38639e-05
3.9108e-08
1.38643e-05
4.06291e-08
1.38666e-05
4.66763e-08
1.38685e-05
4.94456e-08
1.38695e-05
4.74048e-08
1.38707e-05
4.52194e-08
4.46489e-08
1.38727e-05
1.45378e-05
-4.00598e-08
1.45414e-05
-2.00072e-08
1.45406e-05
-1.96286e-08
1.45344e-05
-4.33299e-08
1.45377e-05
-1.24215e-08
1.45363e-05
-5.95857e-09
1.453e-05
-1.98039e-08
1.45309e-05
2.01539e-09
1.45325e-05
2.19383e-08
1.45288e-05
1.68959e-08
1.45266e-05
1.85392e-08
1.45282e-05
3.33853e-08
1.45292e-05
4.11799e-08
1.45285e-05
3.98245e-08
1.45287e-05
4.03709e-08
1.45307e-05
4.4711e-08
1.45328e-05
4.73654e-08
1.45341e-05
4.61334e-08
1.45353e-05
4.39651e-08
4.28457e-08
1.45371e-05
1.52338e-05
-3.49367e-08
1.52361e-05
-2.23409e-08
1.52357e-05
-1.92196e-08
1.52302e-05
-3.78211e-08
1.52322e-05
-1.44054e-08
1.52313e-05
-5.12458e-09
1.52259e-05
-1.43365e-08
1.52258e-05
2.03417e-09
1.52273e-05
2.04732e-08
1.52247e-05
1.95164e-08
1.52225e-05
2.06834e-08
1.52237e-05
3.2244e-08
1.52249e-05
3.99604e-08
1.52247e-05
4.00051e-08
1.5225e-05
4.01123e-08
1.52267e-05
4.30301e-08
1.52288e-05
4.52675e-08
1.52303e-05
4.4587e-08
1.52317e-05
4.26033e-08
4.11415e-08
1.52334e-05
1.59629e-05
-3.04761e-08
1.59642e-05
-2.36391e-08
1.5964e-05
-1.9023e-08
1.59591e-05
-3.29573e-08
1.596e-05
-1.53252e-08
1.59595e-05
-4.643e-09
1.59549e-05
-9.72775e-09
1.59542e-05
2.73966e-09
1.59555e-05
1.92426e-08
1.59537e-05
2.1294e-08
1.59518e-05
2.25916e-08
1.59525e-05
3.14921e-08
1.59539e-05
3.86382e-08
1.59541e-05
3.97167e-08
1.59545e-05
3.97322e-08
1.5956e-05
4.15605e-08
1.5958e-05
4.32401e-08
1.59597e-05
4.28573e-08
1.59612e-05
4.11171e-08
3.94792e-08
1.59629e-05
1.67267e-05
-2.66103e-08
1.67272e-05
-2.40949e-08
1.6727e-05
-1.888e-08
1.67228e-05
-2.87259e-08
1.67229e-05
-1.54046e-08
1.67226e-05
-4.31344e-09
1.67188e-05
-5.93533e-09
1.67176e-05
3.88103e-09
1.67186e-05
1.83159e-08
1.67175e-05
2.24011e-08
1.67159e-05
2.4151e-08
1.67164e-05
3.10146e-08
1.67177e-05
3.73234e-08
1.67183e-05
3.90557e-08
1.67189e-05
3.91625e-08
1.67203e-05
4.02163e-08
1.67222e-05
4.13208e-08
1.6724e-05
4.1031e-08
1.67256e-05
3.95173e-08
3.7823e-08
1.67273e-05
1.7527e-05
-2.32708e-08
1.75268e-05
-2.38839e-08
1.75266e-05
-1.86753e-08
1.7523e-05
-2.50829e-08
1.75224e-05
-1.4856e-08
1.75221e-05
-3.9907e-09
1.7519e-05
-2.87744e-09
1.75177e-05
5.24409e-09
1.75183e-05
1.76985e-08
1.75177e-05
2.30056e-08
1.75165e-05
2.53102e-08
1.75168e-05
3.06916e-08
1.75181e-05
3.60722e-08
1.7519e-05
3.81231e-08
1.75198e-05
3.83812e-08
1.75211e-05
3.89196e-08
1.75229e-05
3.95096e-08
1.75248e-05
3.91756e-08
1.75265e-05
3.78318e-08
3.6155e-08
1.75281e-05
1.83655e-05
-2.03907e-08
1.83647e-05
-2.3164e-08
1.83644e-05
-1.83331e-08
1.83613e-05
-2.19596e-08
1.83603e-05
-1.38689e-08
1.83599e-05
-3.59206e-09
1.83575e-05
-4.44865e-10
1.8356e-05
6.65953e-09
1.83564e-05
1.73516e-08
1.83561e-05
2.32527e-08
1.83554e-05
2.60671e-08
1.83557e-05
3.04155e-08
1.83568e-05
3.48978e-08
1.8358e-05
3.70078e-08
1.83589e-05
3.73991e-08
1.83602e-05
3.76127e-08
1.8362e-05
3.77847e-08
1.83638e-05
3.73334e-08
1.83655e-05
3.60947e-08
3.44709e-08
1.83672e-05
1.92439e-05
-1.79066e-08
1.92428e-05
-2.20704e-08
1.92423e-05