/*--------------------------------*- C++ -*----------------------------------*\
| =========                 |                                                 |
| \\      /  F ield         | OpenFOAM: The Open Source CFD Toolbox           |
|  \\    /   O peration     | Version:  2106                                  |
|   \\  /    A nd           | Website:  www.openfoam.com                      |
|    \\/     M anipulation  |                                                 |
\*---------------------------------------------------------------------------*/
FoamFile
{
    version     2.0;
    format      ascii;
    arch        "LSB;label=32;scalar=64";
    class       surfaceScalarField;
    location    "0.47";
    object      phi;
}
// * * * * * * * * * * * * * * * * * * * * * * * * * * * * * * * * * * * * * //

dimensions      [0 3 -1 0 0 0 0];

oriented        oriented;

internalField   nonuniform List<scalar> 
19000
(
1.17261e-06
-7.43199e-07
1.18304e-06
1.07994e-06
1.1826e-06
-6.29973e-07
1.17378e-06
5.4297e-07
1.19776e-06
-5.74028e-07
1.21369e-06
-3.94689e-07
1.22131e-06
-4.12185e-07
1.19654e-06
-1.33572e-07
1.20017e-06
2.94881e-07
1.1715e-06
1.74531e-07
1.18076e-06
1.95015e-07
1.18858e-06
1.81363e-07
1.18432e-06
-8.52171e-08
1.18431e-06
-7.1961e-08
1.19019e-06
-1.41173e-07
1.18633e-06
-8.82218e-08
1.19656e-06
-7.95877e-08
1.18022e-06
-2.67006e-07
1.19558e-06
-2.83123e-08
-3.27172e-07
1.13977e-06
1.23219e-06
-7.51128e-07
1.247e-06
1.06513e-06
1.24585e-06
-6.28821e-07
1.24032e-06
5.48501e-07
1.25996e-06
-5.93674e-07
1.27425e-06
-4.08977e-07
1.2826e-06
-4.20538e-07
1.26003e-06
-1.10996e-07
1.25686e-06
2.9805e-07
1.23735e-06
1.94042e-07
1.23696e-06
1.95403e-07
1.25467e-06
1.6365e-07
1.24145e-06
-7.19979e-08
1.24964e-06
-8.01494e-08
1.2425e-06
-1.3403e-07
1.25338e-06
-9.91037e-08
1.24406e-06
-7.02665e-08
1.24788e-06
-2.70824e-07
1.2378e-06
-1.82327e-08
-3.10458e-07
1.22108e-06
1.29333e-06
-7.61674e-07
1.31424e-06
1.04422e-06
1.3086e-06
-6.23173e-07
1.3097e-06
5.47401e-07
1.3185e-06
-6.02478e-07
1.33454e-06
-4.25019e-07
1.34136e-06
-4.27359e-07
1.32873e-06
-9.83627e-08
1.31882e-06
3.07957e-07
1.31012e-06
2.02748e-07
1.30201e-06
2.03515e-07
1.31997e-06
1.45689e-07
1.30386e-06
-5.58887e-08
1.3093e-06
-8.55949e-08
1.30075e-06
-1.25479e-07
1.30797e-06
-1.06316e-07
1.30192e-06
-6.42222e-08
1.30033e-06
-2.69229e-07
1.30148e-06
-1.93847e-08
-2.89347e-07
1.28037e-06
1.35591e-06
-7.73486e-07
1.37974e-06
1.02039e-06
1.36901e-06
-6.12447e-07
1.37558e-06
5.40829e-07
1.37236e-06
-5.99256e-07
1.38961e-06
-4.42269e-07
1.39513e-06
-4.32876e-07
1.39478e-06
-9.80181e-08
1.38536e-06
3.17384e-07
1.38233e-06
2.0577e-07
1.37436e-06
2.11489e-07
1.38333e-06
1.36717e-07
1.36916e-06
-4.1714e-08
1.36777e-06
-8.42111e-08
1.36074e-06
-1.1844e-07
1.36311e-06
-1.08692e-07
1.35874e-06
-5.98538e-08
1.35384e-06
-2.64327e-07
1.35668e-06
-2.22195e-08
-2.66798e-07
1.33413e-06
1.41967e-06
-7.848e-07
1.44281e-06
9.97257e-07
1.4279e-06
-5.97539e-07
1.43739e-06
5.31341e-07
1.42508e-06
-5.86949e-07
1.44067e-06
-4.57856e-07
1.44577e-06
-4.37985e-07
1.4556e-06
-1.07839e-07
1.45308e-06
3.19898e-07
1.45221e-06
2.06635e-07
1.44778e-06
2.15923e-07
1.44759e-06
1.36912e-07
1.43415e-06
-2.82791e-08
1.4289e-06
-7.89568e-08
1.42126e-06
-1.10808e-07
1.4213e-06
-1.0873e-07
1.41665e-06
-5.51965e-08
1.4096e-06
-2.57278e-07
1.41283e-06
-2.5449e-08
-2.43263e-07
1.38929e-06
1.48496e-06
-7.94079e-07
1.50504e-06
9.77175e-07
1.48787e-06
-5.80369e-07
1.49804e-06
5.21164e-07
1.48127e-06
-5.70169e-07
1.4926e-06
-4.69192e-07
1.49742e-06
-4.42806e-07
1.51372e-06
-1.24141e-07
1.5196e-06
3.1402e-07
1.52045e-06
2.05784e-07
1.5189e-06
2.17476e-07
1.51341e-06
1.42403e-07
1.49947e-06
-1.4342e-08
1.49283e-06
-7.2315e-08
1.48437e-06
-1.02348e-07
1.48277e-06
-1.07134e-07
1.47827e-06
-5.06898e-08
1.46907e-06
-2.48085e-07
1.47288e-06
-2.92574e-08
-2.1889e-07
1.44851e-06
1.55251e-06
-8.00369e-07
1.569e-06
9.60683e-07
1.55159e-06
-5.62963e-07
1.56149e-06
5.11266e-07
1.54392e-06
-5.52599e-07
1.55014e-06
-4.75411e-07
1.55378e-06
-4.46452e-07
1.57304e-06
-1.43395e-07
1.58519e-06
3.01864e-07
1.58819e-06
2.02785e-07
1.58827e-06
2.17399e-07
1.58098e-06
1.49694e-07
1.56699e-06
-3.50762e-10
1.56008e-06
-6.54055e-08
1.55148e-06
-9.37495e-08
1.54871e-06
-1.0436e-07
1.54479e-06
-4.67697e-08
1.53364e-06
-2.36942e-07
1.53779e-06
-3.34001e-08
-1.94108e-07
1.513e-06
1.62308e-06
-8.03324e-07
1.63686e-06
9.46909e-07
1.62068e-06
-5.46787e-07
1.63038e-06
5.01572e-07
1.6138e-06
-5.36025e-07
1.61556e-06
-4.77172e-07
1.61694e-06
-4.47825e-07
1.63631e-06
-1.62766e-07
1.65169e-06
2.86483e-07
1.65669e-06
1.97782e-07
1.65779e-06
2.16301e-07
1.65085e-06
1.56635e-07
1.63781e-06
1.26913e-08
1.63127e-06
-5.88695e-08
1.62311e-06
-8.55871e-08
1.61963e-06
-1.00888e-07
1.61656e-06
-4.36984e-08
1.60375e-06
-2.24133e-07
1.60793e-06
-3.75709e-08
-1.69376e-07
1.58319e-06
1.69728e-06
-8.03031e-07
1.70972e-06
9.34467e-07
1.69548e-06
-5.32539e-07
1.70543e-06
4.91619e-07
1.69022e-06
-5.20813e-07
1.6888e-06
-4.75759e-07
1.68727e-06
-4.46287e-07
1.70474e-06
-1.80242e-07
1.7208e-06
2.70427e-07
1.7271e-06
1.9148e-07
1.729e-06
2.14398e-07
1.72357e-06
1.62065e-07
1.71226e-06
2.40072e-08
1.70649e-06
-5.31062e-08
1.69918e-06
-7.82774e-08
1.69532e-06
-9.7021e-08
1.69331e-06
-4.16889e-08
1.67919e-06
-2.10019e-07
1.68313e-06
-4.15092e-08
-1.45211e-07
1.65897e-06
1.7755e-06
-7.99807e-07
1.78779e-06
9.22174e-07
1.77549e-06
-5.20241e-07
1.78608e-06
4.81031e-07
1.772e-06
-5.06734e-07
1.76863e-06
-4.7239e-07
1.7641e-06
-4.41755e-07
1.77847e-06
-1.94609e-07
1.79352e-06
2.55379e-07
1.80035e-06
1.84649e-07
1.80291e-06
2.11838e-07
1.79958e-06
1.654e-07
1.79042e-06
3.3162e-08
1.78556e-06
-4.82479e-08
1.77941e-06
-7.21291e-08
1.7753e-06
-9.29042e-08
1.77448e-06
-4.08704e-08
1.75952e-06
-1.95061e-07
1.76299e-06
-4.49793e-08
-1.22202e-07
1.73998e-06
1.85798e-06
-7.94036e-07
1.87085e-06
9.09302e-07
1.86007e-06
-5.09465e-07
1.87146e-06
4.69645e-07
1.85819e-06
-4.93467e-07
1.85377e-06
-4.67965e-07
1.84651e-06
-4.34496e-07
1.85725e-06
-2.05354e-07
1.87041e-06
2.42219e-07
1.87729e-06
1.77775e-07
1.88035e-06
2.08775e-07
1.8793e-06
1.66446e-07
1.87249e-06
3.99796e-08
1.86842e-06
-4.4186e-08
1.86361e-06
-6.73164e-08
1.85931e-06
-8.86008e-08
1.85966e-06
-4.12225e-08
1.84437e-06
-1.79773e-07
1.84711e-06
-4.77166e-08
-1.00965e-07
1.82587e-06
1.94491e-06
-7.86106e-07
1.9587e-06
8.95509e-07
1.9488e-06
-4.99561e-07
1.96101e-06
4.57434e-07
1.94826e-06
-4.80718e-07
1.94338e-06
-4.63083e-07
1.93381e-06
-4.24926e-07
1.94099e-06
-2.12541e-07
1.952e-06
2.3121e-07
1.95877e-06
1.71009e-07
1.96222e-06
2.05326e-07
1.96332e-06
1.65344e-07
1.95882e-06
4.44772e-08
1.95529e-06
-4.06494e-08
1.95183e-06
-6.38602e-08
1.94736e-06
-8.41346e-08
1.94868e-06
-4.25338e-08
1.93355e-06
-1.64651e-07
1.93529e-06
-4.94572e-08
-8.19908e-08
1.91632e-06
2.03646e-06
-7.76374e-07
2.05131e-06
8.80656e-07
2.04161e-06
-4.89863e-07
2.05465e-06
4.444e-07
2.04212e-06
-4.68191e-07
2.03717e-06
-4.58134e-07
2.02573e-06
-4.13485e-07
2.02988e-06
-2.16689e-07
2.0389e-06
2.22185e-07
2.04562e-06
1.64294e-07
2.04941e-06
2.01527e-07
2.05224e-06
1.6252e-07
2.04989e-06
4.68271e-08
2.04654e-06
-3.7302e-08
2.04433e-06
-6.16447e-08
2.03971e-06
-7.95168e-08
2.04159e-06
-4.44114e-08
2.02706e-06
-1.50122e-07
2.02759e-06
-4.99878e-08
-6.55284e-08
2.01112e-06
2.13279e-06
-7.65161e-07
2.14877e-06
8.64679e-07
2.13871e-06
-4.7981e-07
2.1526e-06
4.3051e-07
2.13996e-06
-4.55552e-07
2.13521e-06
-4.53375e-07
2.12229e-06
-4.00572e-07
2.12419e-06
-2.18585e-07
2.13164e-06
2.14733e-07
2.1384e-06
1.57539e-07
2.14259e-06
1.97336e-07
2.14653e-06
1.58573e-07
2.14605e-06
4.73136e-08
2.14259e-06
-3.38398e-08
2.14138e-06
-6.04419e-08
2.13666e-06
-7.47955e-08
2.13859e-06
-4.63446e-08
2.12499e-06
-1.36519e-07
2.12424e-06
-4.9233e-08
-5.15228e-08
2.11023e-06
2.23406e-06
-7.52733e-07
2.25122e-06
8.47522e-07
2.24041e-06
-4.69001e-07
2.25522e-06
4.15694e-07
2.24214e-06
-4.42467e-07
2.23774e-06
-4.48977e-07
2.22367e-06
-3.86504e-07
2.22414e-06
-2.19056e-07
2.23052e-06
2.08353e-07
2.23734e-06
1.50719e-07
2.24201e-06
1.92665e-07
2.24646e-06
1.54126e-07
2.24751e-06
4.62656e-08
2.24373e-06
-3.006e-08
2.24323e-06
-5.99447e-08
2.23853e-06
-7.00921e-08
2.23998e-06
-4.77939e-08
2.22753e-06
-1.24075e-07
2.22559e-06
-4.72868e-08
-3.96672e-08
2.21373e-06
2.34043e-06
-7.39285e-07
2.35882e-06
8.29128e-07
2.347e-06
-4.5718e-07
2.36283e-06
3.99867e-07
2.34901e-06
-4.28645e-07
2.34507e-06
-4.45039e-07
2.33007e-06
-3.71509e-07
2.32979e-06
-2.18778e-07
2.33557e-06
2.02575e-07
2.34239e-06
1.43907e-07
2.34764e-06
1.87407e-07
2.35206e-06
1.49706e-07
2.35434e-06
4.39907e-08
2.35017e-06
-2.58938e-08
2.35003e-06
-5.97994e-08
2.34554e-06
-6.55999e-08
2.34603e-06
-4.82938e-08
2.33486e-06
-1.12898e-07
2.33196e-06
-4.43902e-08
-2.95276e-08
2.32182e-06
2.45205e-06
-7.24935e-07
2.47174e-06
8.09436e-07
2.45875e-06
-4.44196e-07
2.47566e-06
3.8296e-07
2.4609e-06
-4.13885e-07
2.45747e-06
-4.4161e-07
2.44171e-06
-3.55745e-07
2.44111e-06
-2.18185e-07
2.44667e-06
1.97017e-07
2.45334e-06
1.37238e-07
2.4593e-06
1.81452e-07
2.46332e-06
1.45678e-07
2.46656e-06
4.07511e-08
2.46208e-06
-2.14114e-08
2.46192e-06
-5.96364e-08
2.45787e-06
-6.15486e-08
2.45711e-06
-4.75408e-08
2.44715e-06
-1.02933e-07
2.44365e-06
-4.08962e-08
-2.06582e-08
2.43479e-06
2.5691e-06
-7.09741e-07
2.59014e-06
7.88395e-07
2.57591e-06
-4.29968e-07
2.59394e-06
3.64929e-07
2.57813e-06
-3.98069e-07
2.57522e-06
-4.38697e-07
2.5588e-06
-3.39332e-07
2.55809e-06
-2.17476e-07
2.56371e-06
1.91397e-07
2.57007e-06
1.30882e-07
2.57683e-06
1.74692e-07
2.58026e-06
1.42249e-07
2.58424e-06
3.67735e-08
2.57963e-06
-1.68009e-08
2.57908e-06
-5.9085e-08
2.57568e-06
-5.81497e-08
2.57362e-06
-4.54837e-08
2.56458e-06
-9.38921e-08
2.56092e-06
-3.72419e-08
-1.26879e-08
2.55295e-06
2.69181e-06
-6.9372e-07
2.71424e-06
7.65961e-07
2.69873e-06
-4.14451e-07
2.71789e-06
3.45762e-07
2.70098e-06
-3.81155e-07
2.69856e-06
-4.36274e-07
2.6816e-06
-3.22379e-07
2.6808e-06
-2.16676e-07
2.68671e-06
1.85491e-07
2.69257e-06
1.25019e-07
2.70023e-06
1.6703e-07
2.70299e-06
1.39491e-07
2.70748e-06
3.2288e-08
2.70301e-06
-1.2335e-08
2.70172e-06
-5.77986e-08
2.69911e-06
-5.55376e-08
2.69594e-06
-4.23141e-08
2.68738e-06
-8.53317e-08
2.68399e-06
-3.38448e-08
-5.39105e-09
2.67669e-06
2.82042e-06
-6.7687e-07
2.84427e-06
7.42105e-07
2.82745e-06
-3.97628e-07
2.84774e-06
3.25472e-07
2.82974e-06
-3.63151e-07
2.82775e-06
-4.34285e-07
2.81038e-06
-3.05012e-07
2.8094e-06
-2.15699e-07
2.81579e-06
1.79106e-07
2.82098e-06
1.19823e-07
2.82961e-06
1.58403e-07
2.83174e-06
1.37362e-07
2.83647e-06
2.75598e-08
2.83246e-06
-8.32309e-09
2.83016e-06
-5.54999e-08
2.82833e-06
-5.37057e-08
2.82441e-06
-3.83978e-08
2.81591e-06
-7.68295e-08
2.813e-06
-3.09395e-08
1.25459e-09
2.80636e-06
2.95521e-06
-6.59182e-07
2.9805e-06
7.1681e-07
2.96238e-06
-3.795e-07
2.98375e-06
3.04102e-07
2.9647e-06
-3.44106e-07
2.96306e-06
-4.32642e-07
2.94543e-06
-2.87388e-07
2.94412e-06
-2.1439e-07
2.95118e-06
1.72055e-07
2.95555e-06
1.15448e-07
2.96514e-06
1.48811e-07
2.9668e-06
1.35707e-07
2.97145e-06
2.29057e-08
2.96818e-06
-5.05232e-09
2.96473e-06
-5.20503e-08
2.9635e-06
-5.24787e-08
2.95928e-06
-3.4173e-08
2.95056e-06
-6.8106e-08
2.94814e-06
-2.85244e-08
7.0968e-09
2.9423e-06
3.09648e-06
-6.40652e-07
3.12321e-06
6.90076e-07
3.1038e-06
-3.60094e-07
3.12619e-06
2.81718e-07
3.10618e-06
-3.241e-07
3.10476e-06
-4.31221e-07
3.08708e-06
-2.69703e-07
3.08524e-06
-2.12554e-07
3.09314e-06
1.64154e-07
3.09658e-06
1.12006e-07
3.10705e-06
1.3834e-07
3.10848e-06
1.34279e-07
3.11272e-06
1.86693e-08
3.11041e-06
-2.74824e-09
3.10581e-06
-4.74515e-08
3.10488e-06
-5.15443e-08
3.10077e-06
-3.00643e-08
3.09174e-06
-5.90757e-08
3.08961e-06
-2.63916e-08
1.18927e-08
3.08481e-06
3.24454e-06
-6.21281e-07
3.27269e-06
6.6192e-07
3.25206e-06
-3.39459e-07
3.27536e-06
2.58421e-07
3.25451e-06
-3.03249e-07
3.25315e-06
-4.29862e-07
3.23564e-06
-2.52192e-07
3.23305e-06
-2.09969e-07
3.24197e-06
1.55236e-07
3.24443e-06
1.09545e-07
3.25559e-06
1.27178e-07
3.25711e-06
1.32759e-07
3.26059e-06
1.51948e-08
3.25938e-06
-1.54057e-09
3.25376e-06
-4.18353e-08
3.25275e-06
-5.05263e-08
3.24909e-06
-2.64137e-08
3.23986e-06
-4.98383e-08
3.23769e-06
-2.4221e-08
1.54439e-08
3.23414e-06
3.39973e-06
-6.01078e-07
3.42927e-06
6.3238e-07
3.40749e-06
-3.17679e-07
3.43157e-06
2.34343e-07
3.41002e-06
-2.81704e-07
3.40852e-06
-4.28364e-07
3.39146e-06
-2.35128e-07
3.38789e-06
-2.06403e-07
3.39796e-06
1.45169e-07
3.39948e-06
1.08028e-07
3.41105e-06
1.15608e-07
3.41301e-06
1.30796e-07
3.41542e-06
1.27867e-08
3.41531e-06
-1.43505e-09
3.40893e-06
-3.54529e-08
3.40748e-06
-4.90729e-08
3.40449e-06
-2.34244e-08
3.39527e-06
-4.06224e-08
3.39274e-06
-2.16934e-08
1.77043e-08
3.39048e-06
3.5624e-06
-5.80063e-07
3.59326e-06
6.01515e-07
3.57045e-06
-2.94871e-07
3.59514e-06
2.09659e-07
3.57308e-06
-2.59651e-07
3.5712e-06
-4.26482e-07
3.5549e-06
-2.18824e-07
3.55012e-06
-2.01624e-07
3.56139e-06
1.33895e-07
3.56211e-06
1.07309e-07
3.57375e-06
1.03973e-07
3.57646e-06
1.28082e-07
3.57762e-06
1.16313e-08
3.57846e-06
-2.27991e-09
3.57168e-06
-2.86683e-08
3.5695e-06
-4.68924e-08
3.56722e-06
-2.1144e-08
3.55833e-06
-3.17347e-08
3.55521e-06
-1.85749e-08
1.88214e-08
3.55409e-06
3.73291e-06
-5.58269e-07
3.76501e-06
5.69411e-07
3.74134e-06
-2.71196e-07
3.76641e-06
1.84591e-07
3.74407e-06
-2.37319e-07
3.74153e-06
-4.23935e-07
3.72633e-06
-2.03623e-07
3.72012e-06
-1.95424e-07
3.73257e-06
1.21452e-07
3.73273e-06
1.07143e-07
3.74406e-06
9.26506e-08
3.74776e-06
1.24382e-07
3.74761e-06
1.17783e-08
3.74912e-06
-3.79117e-09
3.74237e-06
-2.19192e-08
3.73924e-06
-4.37627e-08
3.7376e-06
-1.94987e-08
3.72935e-06
-2.34847e-08
3.72555e-06
-1.47759e-08
1.91104e-08
3.72526e-06
3.91166e-06
-5.35738e-07
3.94489e-06
5.36182e-07
3.92055e-06
-2.4686e-07
3.94573e-06
1.59409e-07
3.92338e-06
-2.14967e-07
3.91985e-06
-4.20403e-07
3.90611e-06
-1.89882e-07
3.89834e-06
-1.87657e-07
3.9118e-06
1.07995e-07
3.91173e-06
1.07212e-07
3.92237e-06
8.20062e-08
3.92719e-06
1.1957e-07
3.92582e-06
1.31462e-08
3.92765e-06
-5.6204e-09
3.92132e-06
-1.55934e-08
3.91716e-06
-3.95992e-08
3.91599e-06
-1.83305e-08
3.90864e-06
-1.61329e-08
3.9042e-06
-1.03376e-08
1.89459e-08
3.90436e-06
4.09904e-06
-5.12528e-07
4.13325e-06
5.01971e-07
4.10851e-06
-2.22122e-07
4.13349e-06
1.34434e-07
4.11141e-06
-1.92892e-07
4.10655e-06
-4.15543e-07
4.09461e-06
-1.77938e-07
4.08524e-06
-1.78292e-07
4.09945e-06
9.37933e-08
4.09948e-06
1.07179e-07
4.10914e-06
7.23456e-08
4.11506e-06
1.13649e-07
4.11266e-06
1.55464e-08
4.11443e-06
-7.39519e-09
4.10884e-06
-1.00016e-08
4.10373e-06
-3.44819e-08
4.10278e-06
-1.7386e-08
4.09652e-06
-9.87536e-09
4.09161e-06
-5.42503e-09
1.87062e-08
4.09185e-06
4.29549e-06
-4.88713e-07
4.3305e-06
4.66956e-07
4.30567e-06
-1.97294e-07
4.33007e-06
1.10034e-07
4.30859e-06
-1.71405e-07
4.30206e-06
-4.09011e-07
4.29216e-06
-1.68046e-07
4.28132e-06
-1.67451e-07
4.2959e-06
7.92159e-08
4.29636e-06
1.06716e-07
4.3048e-06
6.39109e-08
4.31174e-06
1.06712e-07
4.30856e-06
1.87254e-08
4.30991e-06
-8.75224e-09
4.30527e-06
-5.356e-09
4.29944e-06
-2.86502e-08
4.2984e-06
-1.63458e-08
4.29335e-06
-4.82481e-09
4.28819e-06
-2.72198e-10
1.86922e-08
4.28821e-06
4.50144e-06
-4.6438e-07
4.53705e-06
4.31351e-07
4.51249e-06
-1.72736e-07
4.53591e-06
8.66107e-08
4.51534e-06
-1.50833e-07
4.50684e-06
-4.00513e-07
4.49911e-06
-1.60317e-07
4.48707e-06
-1.55406e-07
4.50159e-06
6.46936e-08
4.50278e-06
1.05522e-07
4.50981e-06
5.6881e-08
4.51761e-06
9.89095e-08
4.51393e-06
2.24077e-08
4.51458e-06
-9.40443e-09
4.51099e-06
-1.76184e-09
4.50474e-06
-2.23962e-08
4.50333e-06
-1.49391e-08
4.49945e-06
-9.48914e-10
4.49437e-06
4.81021e-09
1.91196e-08
4.49394e-06
4.71737e-06
-4.39636e-07
4.75331e-06
3.95408e-07
4.72942e-06
-1.48842e-07
4.75145e-06
6.4583e-08
4.73211e-06
-1.31498e-07
4.72146e-06
-3.89864e-07
4.7158e-06
-1.54657e-07
4.70295e-06
-1.42555e-07
4.71699e-06
5.06603e-08
4.71913e-06
1.03383e-07
4.72467e-06
5.13389e-08
4.7331e-06
9.04754e-08
4.72927e-06
2.62427e-08
4.72903e-06
-9.16435e-09
4.7264e-06
8.63317e-10
4.72009e-06
-1.60856e-08
4.71812e-06
-1.29667e-08
4.71523e-06
1.93981e-09
4.71058e-06
9.46338e-09
2.011e-08
4.70959e-06
4.94377e-06
-4.14604e-07
4.97975e-06
3.59421e-07
4.95694e-06
-1.26028e-07
4.97717e-06
4.43542e-08
4.95937e-06
-1.13696e-07
4.94651e-06
-3.77012e-07
4.94265e-06
-1.50793e-07
4.92946e-06
-1.29368e-07
4.94259e-06
3.75359e-08
4.94582e-06
1.00149e-07
4.94986e-06
4.72951e-08
4.95864e-06
8.16949e-08
4.95501e-06
2.98729e-08
4.95378e-06
-7.93412e-09
4.95197e-06
2.67809e-09
4.94594e-06
-1.00593e-08
4.94332e-06
-1.0342e-08
4.94115e-06
4.10882e-09
4.9372e-06
1.34152e-08
2.16176e-08
4.93569e-06
5.18114e-06
-3.89425e-07
5.21684e-06
3.23717e-07
5.19551e-06
-1.047e-07
5.2136e-06
2.62684e-08
5.19754e-06
-9.76407e-08
5.1826e-06
-3.62064e-07
5.18011e-06
-1.48309e-07
5.16706e-06
-1.16318e-07
5.17891e-06
2.56833e-08
5.18331e-06
9.57504e-08
5.18592e-06
4.46831e-08
5.19474e-06
7.28768e-08
5.19161e-06
3.30058e-08
5.18938e-06
-5.70531e-09
5.1882e-06
3.85855e-09
5.18274e-06
-4.59956e-09
5.1795e-06
-7.1049e-09
5.17772e-06
5.88813e-09
5.17463e-06
1.65081e-08
2.34666e-08
5.17278e-06
5.43002e-06
-3.64256e-07
5.46508e-06
2.88662e-07
5.44561e-06
-8.52369e-08
5.4613e-06
1.05778e-08
5.44711e-06
-8.34444e-08
5.4303e-06
-3.45258e-07
5.42871e-06
-1.46719e-07
5.41623e-06
-1.03833e-07
5.42654e-06
1.53702e-08
5.43205e-06
9.02388e-08
5.43349e-06
4.3243e-08
5.44189e-06
6.44767e-08
5.43949e-06
3.54027e-08
5.4364e-06
-2.61506e-09
5.43563e-06
4.6301e-09
5.43093e-06
1.02305e-10
5.42725e-06
-3.42803e-09
5.42555e-06
7.58709e-09
5.42329e-06
1.87738e-08
2.53753e-08
5.42138e-06
5.69097e-06
-3.39269e-07
5.72498e-06
2.54651e-07
5.70772e-06
-6.7971e-08
5.72088e-06
-2.58433e-09
5.70853e-06
-7.10991e-08
5.69021e-06
-3.26933e-07
5.68903e-06
-1.45543e-07
5.67743e-06
-9.22271e-08
5.68608e-06
6.7136e-09
5.69247e-06
8.38565e-08
5.69308e-06
4.26307e-08
5.70076e-06
5.6791e-08
5.69916e-06
3.70082e-08
5.69544e-06
1.10237e-09
5.69479e-06
5.2778e-09
5.69098e-06
3.9137e-09
5.68714e-06
4.12998e-10
5.68527e-06
9.45259e-09
5.68366e-06
2.03839e-08
2.70752e-08
5.68196e-06
5.96457e-06
-3.14647e-07
5.99712e-06
2.22106e-07
5.98233e-06
-5.31806e-08
5.99295e-06
-1.3207e-08
5.98233e-06
-6.04789e-08
5.9629e-06
-3.07503e-07
5.9617e-06
-1.44346e-07
5.95115e-06
-8.16785e-08
5.95819e-06
-3.24052e-10
5.96512e-06
7.69288e-08
5.96518e-06
4.25701e-08
5.97207e-06
4.98946e-08
5.97127e-06
3.7814e-08
5.96706e-06
5.31249e-09
5.96629e-06
6.04613e-09
5.9634e-06
6.80106e-09
5.95968e-06
4.13785e-09
5.95759e-06
1.15386e-08
5.95633e-06
2.16425e-08
2.83929e-08
5.95502e-06
6.25142e-06
-2.90582e-07
6.28206e-06
1.91471e-07
6.26995e-06
-4.10727e-08
6.27815e-06
-2.14087e-08
6.26905e-06
-5.13725e-08
6.24895e-06
-2.87408e-07
6.24738e-06
-1.42775e-07
6.23792e-06
-7.222e-08
6.24352e-06
-5.92549e-09
6.25063e-06
6.98223e-08
6.25034e-06
4.28634e-08
6.25641e-06
4.38169e-08
6.25647e-06
3.77576e-08
6.25192e-06
9.85825e-09
6.25076e-06
7.20599e-09
6.24871e-06
8.85092e-09
6.24541e-06
7.43936e-09
6.24316e-06
1.3789e-08
6.24203e-06
2.27796e-08
2.93589e-08
6.24106e-06
6.55216e-06
-2.6727e-07
6.58042e-06
1.63206e-07
6.57113e-06
-3.17857e-08
6.57716e-06
-2.74347e-08
6.56928e-06
-4.349e-08
6.54897e-06
-2.67101e-07
6.5468e-06
-1.40602e-07
6.53825e-06
-6.36758e-08
6.54273e-06
-1.0398e-08
6.54971e-06
6.28384e-08
6.54909e-06
4.34828e-08
6.55441e-06
3.84976e-08
6.55537e-06
3.67973e-08
6.55075e-06
1.44785e-08
6.54895e-06
9.00422e-09
6.54751e-06
1.02946e-08
6.54482e-06
1.0122e-08
6.54265e-06
1.59682e-08
6.54148e-06
2.39411e-08
3.00913e-08
6.54075e-06
6.86743e-06
-2.44906e-07
6.89285e-06
1.37785e-07
6.88646e-06
-2.53929e-08
6.89067e-06
-3.16539e-08
6.88366e-06
-3.64719e-08
6.86358e-06
-2.47022e-07
6.8607e-06
-1.37727e-07
6.85277e-06
-5.57479e-08
6.85635e-06
-1.39721e-08
6.86323e-06
5.59607e-08
6.86218e-06
4.45332e-08
6.86654e-06
3.41352e-08
6.86859e-06
3.47465e-08
6.86424e-06
1.88275e-08
6.86165e-06
1.15914e-08
6.86045e-06
1.1499e-08
6.8585e-06
1.20713e-08
6.85658e-06
1.78924e-08
6.85544e-06
2.50762e-08
3.07173e-08
6.85481e-06
7.19791e-06
-2.23677e-07
7.22003e-06
1.15664e-07
7.21653e-06
-2.18993e-08
7.21941e-06
-3.45296e-08
7.21288e-06
-2.99453e-08
7.19338e-06
-2.27516e-07
7.18986e-06
-1.34211e-07
7.18225e-06
-4.81372e-08
7.18497e-06
-1.66907e-08
7.19201e-06
4.89191e-08
7.19045e-06
4.60946e-08
7.1935e-06
3.10833e-08
7.19662e-06
3.16314e-08
7.19306e-06
2.23814e-08
7.18969e-06
1.49677e-08
7.18834e-06
1.28473e-08
7.18703e-06
1.33744e-08
7.18557e-06
1.93543e-08
7.18456e-06
2.60863e-08
3.12594e-08
7.18402e-06
7.5443e-06
-2.03751e-07
7.56286e-06
9.71081e-08
7.56205e-06
-2.10893e-08
7.56411e-06
-3.65985e-08
7.55771e-06
-2.35421e-08
7.53897e-06
-2.08777e-07
7.53509e-06
-1.30328e-07
7.52746e-06
-4.05083e-08
7.52926e-06
-1.84921e-08
7.5367e-06
4.148e-08
7.53488e-06
4.79165e-08
7.53617e-06
2.97944e-08
7.53999e-06
2.78129e-08
7.53776e-06
2.46051e-08
7.53394e-06
1.87934e-08
7.53203e-06
1.47552e-08
7.53112e-06
1.42812e-08
7.53026e-06
2.02142e-08
7.5295e-06
2.68466e-08
3.1644e-08
7.52912e-06
7.90733e-06
-1.85271e-07
7.92232e-06
8.21198e-08
7.92374e-06
-2.2505e-08
7.92555e-06
-3.84163e-08
7.91894e-06
-1.69266e-08
7.90095e-06
-1.90789e-07
7.8972e-06
-1.26577e-07
7.88934e-06
-3.26461e-08
7.88979e-06
-1.8941e-08
7.89788e-06
3.33852e-08
7.89632e-06
4.94811e-08
7.89562e-06
3.04953e-08
7.89937e-06
2.40616e-08
7.89885e-06
2.51265e-08
7.89512e-06
2.25173e-08
7.8925e-06
1.73736e-08
7.8916e-06
1.51836e-08
7.89134e-06
2.04753e-08
7.89094e-06
2.72437e-08
3.17786e-08
7.89081e-06
8.28775e-06
-1.68342e-07
8.29938e-06
7.04933e-08
8.30237e-06
-2.54939e-08
8.30448e-06
-4.05267e-08
8.29744e-06
-9.89038e-09
8.28e-06
-1.73347e-07
8.27686e-06
-1.23439e-07
8.2689e-06
-2.46889e-08
8.26732e-06
-1.73546e-08
8.27605e-06
2.46523e-08
8.27551e-06
5.00246e-08
8.27295e-06
3.30529e-08
8.27572e-06
2.12965e-08
8.27689e-06
2.39542e-08
8.27393e-06
2.54727e-08
8.2707e-06
2.06052e-08
8.26939e-06
1.64953e-08
8.26957e-06
2.02951e-08
8.26962e-06
2.71964e-08
3.15568e-08
8.26984e-06
8.68634e-06
-1.53021e-07
8.69495e-06
6.18802e-08
8.69877e-06
-2.93049e-08
8.70163e-06
-4.33956e-08
8.6942e-06
-2.45519e-09
8.6769e-06
-1.56044e-07
8.67468e-06
-1.21224e-07
8.66716e-06
-1.71709e-08
8.66296e-06
-1.31484e-08
8.67177e-06
1.58379e-08
8.67307e-06
4.87283e-08
8.66921e-06
3.69085e-08
8.67023e-06
2.02751e-08
8.67252e-06
2.16634e-08
8.6709e-06
2.70979e-08
8.66754e-06
2.39667e-08
8.66556e-06
1.84713e-08
8.66579e-06
2.00636e-08
8.66634e-06
2.6653e-08
3.10024e-08
8.66689e-06
9.10391e-06
-1.39311e-07
9.10995e-06
5.58404e-08
9.11381e-06
-3.31644e-08
9.11778e-06
-4.7372e-08
9.11023e-06
5.09767e-09
9.09253e-06
-1.38343e-07
9.09129e-06
-1.1998e-07
9.08499e-06
-1.08761e-08
9.07797e-06
-6.12415e-09
9.08577e-06
8.03435e-09
9.08949e-06
4.50051e-08
9.08526e-06
4.11426e-08
9.08417e-06
2.13638e-08
9.08667e-06
1.91614e-08
9.08668e-06
2.7089e-08
9.08373e-06
2.69201e-08
9.08115e-06
2.10472e-08
9.08103e-06
2.01849e-08
9.08198e-06
2.57029e-08
3.01658e-08
9.08282e-06
9.5413e-06
-1.27148e-07
9.54529e-06
5.18509e-08
9.54846e-06
-3.6341e-08
9.55373e-06
-5.26352e-08
9.54657e-06
1.22565e-08
9.52793e-06
-1.19709e-07
9.52729e-06
-1.19331e-07
9.52323e-06
-6.8256e-09
9.51377e-06
3.34504e-09
9.51907e-06
2.73041e-09
9.52525e-06
3.88199e-08
9.52184e-06
4.4557e-08
9.51877e-06
2.44352e-08
9.52049e-06
1.74436e-08
9.52197e-06
2.56077e-08
9.52e-06
2.88854e-08
9.51714e-06
2.39059e-08
9.51636e-06
2.0974e-08
9.51745e-06
2.46112e-08
2.9051e-08
9.51856e-06
9.99939e-06
-1.16407e-07
1.00019e-05
4.93302e-08
1.00038e-05
-3.81953e-08
1.00103e-05
-5.91527e-08
1.00042e-05
1.83621e-08
9.98432e-06
-9.98486e-08
9.98347e-06
-1.18477e-07
9.98252e-06
-5.88052e-09
9.97152e-06
1.43445e-08
9.97319e-06
1.06102e-09
9.98108e-06
3.09285e-08
9.97955e-06
4.60862e-08
9.97509e-06
2.88971e-08
9.97532e-06
1.72099e-08
9.97764e-06
2.32959e-08
9.97703e-06
2.94865e-08
9.97441e-06
2.65339e-08
9.97293e-06
2.24519e-08
9.97378e-06
2.3764e-08
2.76219e-08
9.97521e-06
1.04791e-05
-1.06882e-07
1.04808e-05
4.76372e-08
1.04808e-05
-3.82363e-08
1.04883e-05
-6.66255e-08
1.0484e-05
2.26884e-08
1.04629e-05
-7.87468e-08
1.04609e-05
-1.16439e-07
1.04634e-05
-8.40503e-09
1.04523e-05
2.54247e-08
1.04499e-05
3.50805e-09
1.0458e-05
2.28052e-08
1.04589e-05
4.51487e-08
1.04541e-05
3.37166e-08
1.04525e-05
1.87666e-08
1.04548e-05
2.10291e-08
1.04556e-05
2.86554e-08
1.04538e-05
2.83689e-08
1.04519e-05
2.43557e-08
1.04522e-05
2.34676e-08
2.60377e-08
1.04538e-05
1.09815e-05
-9.83174e-08
1.09829e-05
4.61408e-08
1.09809e-05
-3.61915e-08
1.09888e-05
-7.45323e-08
1.09869e-05
2.46273e-08
1.09649e-05
-5.67972e-08
1.09606e-05
-1.12125e-07
1.09665e-05
-1.42733e-08
1.09569e-05
3.49598e-08
1.09506e-05
9.80593e-09
1.09573e-05
1.61575e-08
1.09608e-05
4.16717e-08
1.09566e-05
3.79016e-08
1.09534e-05
2.19468e-08
1.09548e-05
1.96169e-08
1.09568e-05
2.67008e-08
1.09561e-05
2.90521e-08
1.09543e-05
2.61858e-08
1.09539e-05
2.37939e-08
2.45649e-08
1.09554e-05
1.15075e-05
-9.04398e-08
1.15094e-05
4.42665e-08
1.15052e-05
-3.20108e-08
1.15128e-05
-8.21762e-08
1.15137e-05
2.3741e-08
1.14916e-05
-3.47346e-08
1.14842e-05
-1.04705e-07
1.14925e-05
-2.25862e-08
1.14861e-05
4.14006e-08
1.14769e-05
1.90192e-08
1.14807e-05
1.23437e-08
1.14861e-05
3.62932e-08
1.14834e-05
4.06133e-08
1.14791e-05
2.62237e-08
1.14792e-05
1.95374e-08
1.14816e-05
2.43179e-08
1.14821e-05
2.84991e-08
1.14809e-05
2.74061e-08
1.14801e-05
2.46239e-08
2.34939e-08
1.14811e-05
1.20584e-05
-8.2986e-08
1.20611e-05
4.15696e-08
1.2055e-05
-2.58974e-08
1.20615e-05
-8.87636e-08
1.20654e-05
1.9926e-08
1.20442e-05
-1.35814e-08
1.20333e-05
-9.37841e-08
1.20427e-05
-3.19656e-08
1.20404e-05
4.36868e-08
1.20296e-05
2.9777e-08
1.20299e-05
1.2056e-08
1.20361e-05
3.0138e-08
1.20353e-05
4.13397e-08
1.20308e-05
3.08034e-08
1.20293e-05
2.09413e-08
1.20314e-05
2.23044e-08
1.20329e-05
2.69283e-08
1.20327e-05
2.76017e-08
1.20317e-05
2.56536e-08
2.29558e-08
1.20322e-05
1.26353e-05
-7.57278e-08
1.26391e-05
3.77545e-08
1.26315e-05
-1.82692e-08
1.26362e-05
-9.34326e-08
1.26428e-05
1.33317e-08
1.26237e-05
5.54109e-09
1.26094e-05
-7.95345e-08
1.26181e-05
-4.0625e-08
1.26203e-05
4.14694e-08
1.26098e-05
4.03093e-08
1.26065e-05
1.52713e-08
1.26121e-05
2.45596e-08
1.26135e-05
3.99332e-08
1.26094e-05
3.48896e-08
1.26067e-05
2.36426e-08
1.26079e-05
2.11696e-08
1.26099e-05
2.48584e-08
1.26108e-05
2.67237e-08
1.26102e-05
2.62326e-08
2.30161e-08
1.26102e-05
1.32397e-05
-6.84853e-08
1.32448e-05
3.26651e-08
1.32362e-05
-9.64508e-09
1.32382e-05
-9.54462e-08
1.32471e-05
4.41647e-09
1.32312e-05
2.14326e-08
1.32141e-05
-6.24667e-08
1.32203e-05
-4.68165e-08
1.32267e-05
3.50375e-08
1.32181e-05
4.89555e-08
1.3212e-05
2.13396e-08
1.32159e-05
2.07036e-08
1.32191e-05
3.67568e-08
1.32163e-05
3.76477e-08
1.32127e-05
2.72966e-08
1.32128e-05
2.1054e-08
1.32148e-05
2.27848e-08
1.32165e-05
2.50928e-08
1.32169e-05
2.57607e-08
2.34665e-08
1.32165e-05
1.38728e-05
-6.1149e-08
1.38791e-05
2.63571e-08
1.38702e-05
-6.61881e-10
1.3869e-05
-9.43087e-08
1.38795e-05
-6.08718e-09
1.38678e-05
3.31706e-08
1.38488e-05
-4.34597e-08
1.38512e-05
-4.92666e-08
1.38609e-05
2.53889e-08
1.38555e-05
5.43623e-08
1.38476e-05
2.925e-08
1.38491e-05
1.91644e-08
1.38533e-05
3.25572e-08
1.38523e-05
3.86089e-08
1.38485e-05
3.11529e-08
1.38474e-05
2.20998e-08
1.38493e-05
2.09266e-08
1.38515e-05
2.29114e-08
1.38529e-05
2.43017e-08
2.35124e-08
1.38529e-05
1.45362e-05
-5.36931e-08
1.45434e-05
1.91364e-08
1.45349e-05
7.90504e-09
1.45304e-05
-8.98073e-08
1.45415e-05
-1.72025e-08
1.45344e-05
4.01997e-08
1.45147e-05
-2.37213e-08
1.45129e-05
-4.74445e-08
1.45241e-05
1.41929e-08
1.45227e-05
5.57327e-08
1.45142e-05
3.7726e-08
1.45133e-05
2.00823e-08
1.45177e-05
2.81981e-08
1.45186e-05
3.76521e-08
1.45155e-05
3.43022e-08
1.45133e-05
2.43055e-08
1.45145e-05
1.96614e-08
1.4517e-05
2.0413e-08
1.45192e-05
2.21937e-08
2.25677e-08
1.45201e-05
1.52314e-05
-4.61675e-08
1.5239e-05
1.14758e-08
1.52316e-05
1.529e-08
1.52239e-05
-8.20391e-08
1.52346e-05
-2.79151e-08
1.52322e-05
4.25984e-08
1.52132e-05
-4.7329e-09
1.52073e-05
-4.15414e-08
1.5218e-05
3.47303e-09
1.52208e-05
5.28917e-08
1.52132e-05
4.53257e-08
1.521e-05
2.33002e-08
1.52137e-05
2.44998e-08
1.52164e-05
3.50034e-08
1.52147e-05
3.59686e-08
1.52119e-05
2.7114e-08
1.52121e-05
1.94784e-08
1.52146e-05
1.78689e-08
1.52172e-05
1.96675e-08
2.08429e-08
1.52189e-05
1.59599e-05
-3.86965e-08
1.59674e-05
3.93613e-09
1.59618e-05
2.08838e-08
1.59513e-05
-7.14866e-08
1.59605e-05
-3.71415e-08
1.59622e-05
4.08398e-08
1.59454e-05
1.20741e-08
1.59362e-05
-3.23192e-08
1.59445e-05
-4.82229e-09
1.5951e-05
4.63969e-08
1.59457e-05
5.05891e-08
1.59408e-05
2.82762e-08
1.59431e-05
2.21933e-08
1.5947e-05
3.11028e-08
1.59471e-05
3.58333e-08
1.59446e-05
2.9599e-08
1.59436e-05
2.0492e-08
1.59455e-05
1.59558e-08
1.59485e-05
1.66954e-08
1.87639e-08
1.59506e-05
1.67234e-05
-3.14479e-08
1.67302e-05
-2.90875e-09
1.67268e-05
2.4304e-08
1.67143e-05
-5.89771e-08
1.6721e-05
-4.38256e-08
1.67261e-05
3.56698e-08
1.67126e-05
2.55877e-08
1.67011e-05
-2.08183e-08
1.67061e-05
-9.78176e-09
1.67148e-05
3.76866e-08
1.67127e-05
5.26485e-08
1.67071e-05
3.38812e-08
1.67075e-05
2.1803e-08
1.67118e-05
2.67893e-08
1.67138e-05
3.3866e-08
1.67123e-05
3.10638e-08
1.67106e-05
2.22426e-08
1.67112e-05
1.52809e-08
1.67141e-05
1.38316e-08
1.61644e-08
1.67167e-05
1.75235e-05
-2.46158e-08
1.75292e-05
-8.57733e-09
1.7528e-05
2.54877e-08
1.75146e-05
-4.55238e-08
1.7518e-05
-4.72546e-08
1.75255e-05
2.81257e-08
1.7516e-05
3.50997e-08
1.75034e-05
-8.20067e-09
1.75049e-05
-1.1236e-08
1.75142e-05
2.83432e-08
1.75154e-05
5.14618e-08
1.75104e-05
3.88462e-08
1.7509e-05
2.32265e-08
1.75126e-05
2.31698e-08
1.75161e-05
3.03967e-08
1.7516e-05
3.11176e-08
1.75142e-05
2.4071e-08
1.75135e-05
1.59501e-08
1.75154e-05
1.19818e-08
1.33558e-08
1.75182e-05
1.83621e-05
-1.83822e-08
1.83663e-05
-1.27247e-08
1.83671e-05
2.46331e-08
1.83537e-05
-3.21049e-08
1.83537e-05
-4.72615e-08
1.83624e-05
1.94726e-08
1.8357e-05
4.04797e-08
1.83446e-05
4.1372e-09
1.83429e-05
-9.45811e-09
1.83514e-05
1.98068e-08
1.83554e-05
4.74091e-08
1.8352e-05
4.2343e-08
1.83493e-05
2.5865e-08
1.83515e-05
2.09858e-08
1.83557e-05
2.62388e-08
1.83571e-05
2.97046e-08
1.83558e-05
2.53298e-08