/*--------------------------------*- C++ -*----------------------------------*\
| =========                 |                                                 |
| \\      /  F ield         | OpenFOAM: The Open Source CFD Toolbox           |
|  \\    /   O peration     | Version:  2106                                  |
|   \\  /    A nd           | Website:  www.openfoam.com                      |
|    \\/     M anipulation  |                                                 |
\*---------------------------------------------------------------------------*/
FoamFile
{
    version     2.0;
    format      ascii;
    arch        "LSB;label=32;scalar=64";
    class       volVectorField;
    location    "0.47";
    object      U;
}
// * * * * * * * * * * * * * * * * * * * * * * * * * * * * * * * * * * * * * //

dimensions      [0 1 -1 0 0 0 0];

internalField   nonuniform List<vector> 
9600
(
(0.852125 -0.00743954 0)
(1.14663 0.0118589 0)
(0.885284 -0.00750463 0)
(1.13248 0.00692606 0)
(0.883843 -0.0078675 0)
(1.15641 -0.00586726 0)
(0.929151 -0.00676532 0)
(1.15349 -0.00275837 0)
(0.904686 0.00587954 0)
(1.14012 0.00332192 0)
(0.875363 0.00467087 0)
(1.13535 0.00477289 0)
(0.907641 -0.0025077 0)
(1.11292 -0.00213406 0)
(0.919716 -0.00458041 0)
(1.11158 -0.00314971 0)
(0.924103 -0.00295019 0)
(1.11678 -0.0114986 0)
(0.906428 -0.00100471 0)
(1.13055 -0.01673 0)
(0.863987 -0.0075097 0)
(1.1398 0.0117488 0)
(0.904685 -0.00750922 0)
(1.12371 0.00708799 0)
(0.909637 -0.00824068 0)
(1.13968 -0.00616162 0)
(0.949445 -0.0069931 0)
(1.13861 -0.00217921 0)
(0.928458 0.00583453 0)
(1.1171 0.00398359 0)
(0.912437 0.00457612 0)
(1.10043 0.00443389 0)
(0.9549 -0.00219991 0)
(1.06951 -0.00226164 0)
(0.974301 -0.00454716 0)
(1.05315 -0.00333947 0)
(0.995535 -0.00283586 0)
(1.03471 -0.0117097 0)
(1.00339 -0.000597115 0)
(1.01591 -0.0186483 0)
(0.883972 -0.00760711 0)
(1.12495 0.0115606 0)
(0.92955 -0.00746159 0)
(1.10587 0.00714271 0)
(0.940875 -0.00847957 0)
(1.1086 -0.0064114 0)
(0.976999 -0.0071055 0)
(1.10951 -0.00184756 0)
(0.967907 0.00597016 0)
(1.08363 0.0043408 0)
(0.963586 0.00464666 0)
(1.06229 0.00392111 0)
(0.997845 -0.00175181 0)
(1.03472 -0.00255907 0)
(1.00603 -0.00425145 0)
(1.02235 -0.00371329 0)
(1.01584 -0.00265686 0)
(1.01337 -0.0113919 0)
(1.0134 -0.00117712 0)
(1.01237 -0.0149103 0)
(0.908445 -0.0077183 0)
(1.10371 0.0113122 0)
(0.952655 -0.00736086 0)
(1.08184 0.00707816 0)
(0.967379 -0.00850752 0)
(1.07132 -0.00666678 0)
(0.998705 -0.00718741 0)
(1.07482 -0.00174769 0)
(1.00344 0.00620621 0)
(1.05592 0.00442805 0)
(1.00274 0.0048691 0)
(1.04078 0.00355234 0)
(1.01793 -0.00134801 0)
(1.02058 -0.00261543 0)
(1.01305 -0.00400718 0)
(1.0128 -0.00390048 0)
(1.01411 -0.00239816 0)
(1.00696 -0.0113892 0)
(1.008 -0.00101087 0)
(1.00644 -0.013629 0)
(0.933205 -0.00783124 0)
(1.07968 0.011039 0)
(0.970571 -0.00720589 0)
(1.05671 0.00695851 0)
(0.984805 -0.00837851 0)
(1.03794 -0.00692798 0)
(1.00835 -0.00726823 0)
(1.04413 -0.00185177 0)
(1.02369 0.0063432 0)
(1.03934 0.00445774 0)
(1.02315 0.00502822 0)
(1.03257 0.0034537 0)
(1.02287 -0.000972199 0)
(1.01547 -0.00248821 0)
(1.01188 -0.00376916 0)
(1.00769 -0.00392954 0)
(1.00944 -0.00221707 0)
(1.00129 -0.0111291 0)
(1.00205 -0.00110311 0)
(0.999443 -0.0126446 0)
(0.954621 -0.00793296 0)
(1.05683 0.0107868 0)
(0.982572 -0.00701128 0)
(1.03518 0.00681815 0)
(0.993825 -0.00816398 0)
(1.01432 -0.00713837 0)
(1.00793 -0.00735371 0)
(1.02186 -0.0021014 0)
(1.02929 0.00630763 0)
(1.03034 0.00446073 0)
(1.02986 0.00508903 0)
(1.0289 0.00354952 0)
(1.02181 -0.000589233 0)
(1.01225 -0.00229671 0)
(1.00915 -0.00349659 0)
(1.0038 -0.00389734 0)
(1.0048 -0.0020372 0)
(0.997212 -0.0107559 0)
(0.99657 -0.00128741 0)
(0.994383 -0.0115008 0)
(0.970735 -0.00801149 0)
(1.03794 0.0105805 0)
(0.989778 -0.00680292 0)
(1.01965 0.00668012 0)
(0.997651 -0.00791865 0)
(1.0009 -0.00726764 0)
(1.00302 -0.00742951 0)
(1.00754 -0.00243283 0)
(1.02627 0.0061171 0)
(1.02436 0.00441544 0)
(1.02921 0.00510076 0)
(1.0255 0.00372641 0)
(1.019 -0.000195614 0)
(1.00964 -0.0020852 0)
(1.00649 -0.0032128 0)
(1.00129 -0.00381089 0)
(1.00127 -0.00187208 0)
(0.99488 -0.010306 0)
(0.992655 -0.00149748 0)
(0.991029 -0.0102663 0)
(0.981465 -0.00805939 0)
(1.02394 0.0104175 0)
(0.993921 -0.00660181 0)
(1.01011 0.00655278 0)
(0.999282 -0.0076752 0)
(0.994976 -0.007321 0)
(0.998057 -0.00747641 0)
(0.998998 -0.00278952 0)
(1.01999 0.00582976 0)
(1.01912 0.00432205 0)
(1.02521 0.00508688 0)
(1.02159 0.00391359 0)
(1.01584 0.000188645 0)
(1.00761 -0.00188075 0)
(1.00444 -0.00293074 0)
(0.999913 -0.00368861 0)
(0.999236 -0.00174281 0)
(0.993898 -0.00978255 0)
(0.990557 -0.00170182 0)
(0.989112 -0.00901412 0)
(0.987969 -0.00807434 0)
(1.01431 0.0102811 0)
(0.996425 -0.0064199 0)
(1.00507 0.00642925 0)
(1.00033 -0.00744816 0)
(0.993419 -0.00731826 0)
(0.994842 -0.00747796 0)
(0.994168 -0.00313013 0)
(1.01336 0.00550667 0)
(1.01409 0.00419403 0)
(1.01989 0.00505237 0)
(1.01739 0.00407604 0)
(1.01274 0.000531985 0)
(1.00599 -0.00169451 0)
(1.00299 -0.00266812 0)
(0.999218 -0.00355119 0)
(0.998325 -0.00165532 0)
(0.993811 -0.00919276 0)
(0.989829 -0.00189127 0)
(0.988333 -0.00778918 0)
(0.991739 -0.00805757 0)
(1.00788 0.0101529 0)
(0.998116 -0.00626154 0)
(1.00268 0.00629958 0)
(1.00125 -0.00723937 0)
(0.993882 -0.00727878 0)
(0.993299 -0.00742785 0)
(0.991569 -0.00342342 0)
(1.00734 0.00519189 0)
(1.00934 0.00404812 0)
(1.0142 0.0050008 0)
(1.01315 0.0041902 0)
(1.00983 0.000818129 0)
(1.00452 -0.00153311 0)
(1.00187 -0.00244333 0)
(0.998803 -0.0034038 0)
(0.997995 -0.001609 0)
(0.994161 -0.00855649 0)
(0.989914 -0.00206283 0)
(0.988308 -0.00661653 0)
(0.993978 -0.00801234 0)
(1.00354 0.0100199 0)
(0.999354 -0.00612476 0)
(1.00152 0.00615885 0)
(1.00199 -0.00704562 0)
(0.994977 -0.00721741 0)
(0.992741 -0.00732837 0)
(0.990217 -0.00365209 0)
(1.00212 0.00491 0)
(1.00504 0.00389836 0)
(1.00876 0.00493541 0)
(1.00909 0.00424396 0)
(1.00718 0.00104135 0)
(1.00309 -0.00139894 0)
(1.00089 -0.00226657 0)
(0.998426 -0.00324296 0)
(0.997855 -0.00160798 0)
(0.994611 -0.00790023 0)
(0.990371 -0.00221115 0)
(0.988686 -0.005519 0)
(0.995407 -0.00794287 0)
(1.00055 0.00987584 0)
(1.00026 -0.00600306 0)
(1.00077 0.00600658 0)
(1.00245 -0.0068626 0)
(0.996027 -0.00714483 0)
(0.992593 -0.00718588 0)
(0.989524 -0.00381269 0)
(0.997757 0.00467105 0)
(1.00138 0.00375113 0)
(1.00402 0.0048599 0)
(1.00548 0.00423841 0)
(1.00493 0.00119701 0)
(1.00177 -0.00128569 0)
(1 -0.00213766 0)
(0.998031 -0.00307471 0)
(0.997719 -0.0016524 0)
(0.994984 -0.00724652 0)
(0.990918 -0.00231813 0)
(0.989215 -0.00452276 0)
(0.996367 -0.00785337 0)
(0.998511 0.00971916 0)
(1.00089 -0.00588793 0)
(1.00013 0.00584347 0)
(1.00262 -0.00668599 0)
(0.996795 -0.0070686 0)
(0.992563 -0.00700812 0)
(0.98919 -0.00391213 0)
(0.994349 0.00447557 0)
(0.998493 0.00360601 0)
(1.00034 0.00477602 0)
(1.00255 0.00418282 0)
(1.00318 0.0012897 0)
(1.00067 -0.00118315 0)
(0.999255 -0.00205247 0)
(0.997666 -0.00290483 0)
(0.997547 -0.00173063 0)
(0.995233 -0.00661469 0)
(0.99141 -0.00236147 0)
(0.989742 -0.00365258 0)
(0.997004 -0.00774756 0)
(0.997192 0.0095499 0)
(1.00127 -0.00577162 0)
(0.99959 0.00566943 0)
(1.00258 -0.00651071 0)
(0.99727 -0.00699363 0)
(0.992556 -0.00680273 0)
(0.989079 -0.00396355 0)
(0.991965 0.0043167 0)
(0.99644 0.00346063 0)
(0.997808 0.00468387 0)
(1.00043 0.00409072 0)
(1.00194 0.00132653 0)
(0.999859 -0.00107867 0)
(0.998695 -0.00200923 0)
(0.997391 -0.00272996 0)
(0.997364 -0.00181741 0)
(0.995378 -0.00602916 0)
(0.991807 -0.00233402 0)
(0.990204 -0.00290987 0)
(0.997402 -0.00762846 0)
(0.996417 0.0093681 0)
(1.00148 -0.00564832 0)
(0.99918 0.00548374 0)
(1.00243 -0.00633127 0)
(0.997531 -0.00692319 0)
(0.992567 -0.0065757 0)
(0.989122 -0.00398247 0)
(0.990529 0.00418346 0)
(0.995147 0.00331369 0)
(0.99629 0.00458163 0)
(0.999082 0.0039794 0)
(1.00114 0.00131331 0)
(0.999332 -0.000962518 0)
(0.998324 -0.00199481 0)
(0.997225 -0.00255561 0)
(0.997198 -0.001887 0)
(0.995459 -0.00550144 0)
(0.992124 -0.00224296 0)
(0.990591 -0.00227695 0)
(0.997637 -0.00749827 0)
(0.996019 0.00917322 0)
(1.00155 -0.00551414 0)
(0.998916 0.00528538 0)
(1.00223 -0.00614301 0)
(0.997666 -0.0068593 0)
(0.992604 -0.00633163 0)
(0.989271 -0.00398314 0)
(0.989828 0.00406665 0)
(0.994442 0.00316497 0)
(0.99551 0.00446647 0)
(0.998315 0.00386347 0)
(1.00065 0.00126152 0)
(0.999017 -0.000833857 0)
(0.998105 -0.00199435 0)
(0.99715 -0.00238887 0)
(0.997064 -0.00191879 0)
(0.995513 -0.00503123 0)
(0.992392 -0.00210717 0)
(0.990922 -0.00173295 0)
(0.997774 -0.00735853 0)
(0.99585 0.00896472 0)
(1.00156 -0.00536673 0)
(0.998768 0.00507329 0)
(1.00202 -0.0059421 0)
(0.997738 -0.00680352 0)
(0.992666 -0.00607299 0)
(0.989483 -0.00397558 0)
(0.989602 0.00395779 0)
(0.994121 0.00301826 0)
(0.995181 0.00433572 0)
(0.99792 0.00375657 0)
(1.00036 0.00117825 0)
(0.998828 -0.000697593 0)
(0.997985 -0.00199563 0)
(0.997134 -0.0022364 0)
(0.996959 -0.00190286 0)
(0.995561 -0.0046072 0)
(0.992639 -0.00194343 0)
(0.991218 -0.00125857 0)
(0.997864 -0.00721009 0)
(0.995799 0.00874187 0)
(1.00154 -0.00520458 0)
(0.998694 0.00484677 0)
(1.00182 -0.00572634 0)
(0.997783 -0.00675588 0)
(0.992748 -0.00580252 0)
(0.98973 -0.00396479 0)
(0.989632 0.00384934 0)
(0.994011 0.00287801 0)
(0.995082 0.00418681 0)
(0.99772 0.00366554 0)
(1.00016 0.00107293 0)
(0.998702 -0.000553094 0)
(0.997918 -0.00199064 0)
(0.997152 -0.00210696 0)
(0.996875 -0.00183313 0)
(0.995612 -0.00421861 0)
(0.992885 -0.00177129 0)
(0.991496 -0.000827218 0)
(0.997934 -0.00705319 0)
(0.995801 0.00850386 0)
(1.0015 -0.00502688 0)
(0.998656 0.00460511 0)
(1.00162 -0.00549485 0)
(0.997819 -0.00671585 0)
(0.992842 -0.00552363 0)
(0.989991 -0.00395171 0)
(0.989778 0.00373682 0)
(0.993997 0.00274594 0)
(0.995085 0.00401607 0)
(0.997604 0.0035921 0)
(1.00001 0.000952304 0)
(0.998601 -0.000411483 0)
(0.997876 -0.00196165 0)
(0.99719 -0.00201294 0)
(0.996807 -0.00171157 0)
(0.995669 -0.00385158 0)
(0.99314 -0.00161406 0)
(0.991767 -0.000426659 0)
(0.997998 -0.00688798 0)
(0.995822 0.00825051 0)
(1.00146 -0.00483373 0)
(0.998635 0.00434869 0)
(1.00142 -0.00524762 0)
(0.997854 -0.00668367 0)
(0.992943 -0.00523607 0)
(0.990257 -0.0039373 0)
(0.989971 0.00361768 0)
(0.99402 0.00262535 0)
(0.995127 0.00382073 0)
(0.997518 0.00353432 0)
(0.999885 0.000823984 0)
(0.998513 -0.000283623 0)
(0.99784 -0.00189394 0)
(0.997241 -0.00195674 0)
(0.996756 -0.00155641 0)
(0.995728 -0.00348645 0)
(0.993407 -0.00148139 0)
(0.992037 -6.87418e-05 0)
(0.998063 -0.00671438 0)
(0.995852 0.00798139 0)
(1.00141 -0.00462516 0)
(0.998621 0.0040784 0)
(1.00122 -0.00498528 0)
(0.99789 -0.00665764 0)
(0.993049 -0.00494162 0)
(0.990527 -0.00391876 0)
(0.990181 0.00348765 0)
(0.994054 0.00252317 0)
(0.995185 0.00360045 0)
(0.99744 0.00349095 0)
(0.999768 0.000690416 0)
(0.998432 -0.000175517 0)
(0.997804 -0.00178821 0)
(0.997302 -0.00192252 0)
(0.996721 -0.00138789 0)
(0.995788 -0.00311254 0)
(0.993685 -0.00137257 0)
(0.992313 0.000240243 0)
(0.998128 -0.00653221 0)
(0.995885 0.00769593 0)
(1.00137 -0.00440044 0)
(0.998611 0.00379352 0)
(1.00102 -0.00470833 0)
(0.997929 -0.00663598 0)
(0.99316 -0.00464518 0)
(0.990798 -0.00388974 0)
(0.990401 0.0033401 0)
(0.99409 0.00244349 0)
(0.99525 0.00335842 0)
(0.997364 0.00345768 0)
(0.999656 0.000560831 0)
(0.998361 -9.50282e-05 0)
(0.997765 -0.00164677 0)
(0.997371 -0.00189379 0)
(0.996705 -0.00122498 0)
(0.995846 -0.00272476 0)
(0.99397 -0.00128025 0)
(0.992598 0.000500232 0)
(0.998195 -0.00634152 0)
(0.995922 0.00739443 0)
(1.00132 -0.00416076 0)
(0.998605 0.00349659 0)
(1.00082 -0.00441939 0)
(0.997971 -0.00661591 0)
(0.993275 -0.00434962 0)
(0.99107 -0.00384819 0)
(0.990627 0.00317075 0)
(0.994125 0.00238355 0)
(0.99532 0.00310174 0)
(0.99729 0.00341959 0)
(0.999545 0.000456246 0)
(0.9983 -4.47927e-05 0)
(0.997722 -0.00147292 0)
(0.997446 -0.00186491 0)
(0.996712 -0.00107829 0)
(0.995901 -0.00232111 0)
(0.994257 -0.0011903 0)
(0.992897 0.000709451 0)
(0.998264 -0.00614239 0)
(0.995964 0.00707736 0)
(1.00127 -0.00390704 0)
(0.998603 0.00318908 0)
(1.00062 -0.00411884 0)
(0.998016 -0.00659595 0)
(0.993396 -0.0040587 0)
(0.991341 -0.00379225 0)
(0.990861 0.00297829 0)
(0.99416 0.00234524 0)
(0.995395 0.00283085 0)
(0.997218 0.00337684 0)
(0.999434 0.000373959 0)
(0.998252 -3.06537e-05 0)
(0.997676 -0.00126604 0)
(0.997523 -0.0018253 0)
(0.996743 -0.00095627 0)
(0.995954 -0.00191008 0)
(0.994541 -0.00108524 0)
(0.993212 0.000853998 0)
(0.998333 -0.00593505 0)
(0.996012 0.00674571 0)
(1.00121 -0.00364038 0)
(0.998605 0.00287244 0)
(1.00041 -0.00380889 0)
(0.998066 -0.00657292 0)
(0.993524 -0.0037785 0)
(0.991611 -0.0037163 0)
(0.991104 0.0027619 0)
(0.994194 0.00232613 0)
(0.995475 0.00255514 0)
(0.99715 0.00332037 0)
(0.99932 0.000325347 0)
(0.998218 -5.21103e-05 0)
(0.997631 -0.00103904 0)
(0.997597 -0.00175984 0)
(0.996801 -0.00086359 0)
(0.996008 -0.00150784 0)
(0.994813 -0.000953576 0)
(0.993544 0.000927916 0)
(0.998404 -0.00571953 0)
(0.996065 0.00639961 0)
(1.00116 -0.0033616 0)
(0.99861 0.0025484 0)
(1.00021 -0.0034935 0)
(0.998119 -0.00654081 0)
(0.993659 -0.0035149 0)
(0.991877 -0.00361593 0)
(0.991356 0.00252065 0)
(0.994229 0.00231747 0)
(0.995559 0.00228689 0)
(0.997091 0.0032348 0)
(0.999204 0.000314553 0)
(0.998198 -9.86423e-05 0)
(0.997589 -0.000813161 0)
(0.997667 -0.00166202 0)
(0.996884 -0.000796198 0)
(0.996068 -0.00113411 0)
(0.995069 -0.000786251 0)
(0.993891 0.000952232 0)
(0.998475 -0.00549644 0)
(0.996126 0.00604046 0)
(1.0011 -0.00307357 0)
(0.99862 0.00222127 0)
(1.00001 -0.00317751 0)
(0.998174 -0.00649386 0)
(0.993803 -0.00327221 0)
(0.99214 -0.00348643 0)
(0.991618 0.00226041 0)
(0.994266 0.00231722 0)
(0.995644 0.00202871 0)
(0.997041 0.00312399 0)
(0.999084 0.000340177 0)
(0.998192 -0.000156272 0)
(0.997555 -0.000598743 0)
(0.997729 -0.00152361 0)
(0.99699 -0.000751653 0)
(0.996139 -0.000802625 0)
(0.995306 -0.000580734 0)
(0.994247 0.000952688 0)
(0.998547 -0.0052661 0)
(0.996194 0.00566969 0)
(1.00104 -0.00277948 0)
(0.998634 0.00189508 0)
(0.99981 -0.00286314 0)
(0.998231 -0.00642994 0)
(0.993958 -0.00305926 0)
(0.992397 -0.00332622 0)
(0.99189 0.00198403 0)
(0.994306 0.00231998 0)
(0.995731 0.00179157 0)
(0.997004 0.00298319 0)
(0.998961 0.000398418 0)
(0.998195 -0.000214083 0)
(0.997531 -0.000403666 0)
(0.997781 -0.00134888 0)
(0.997113 -0.000719075 0)
(0.996228 -0.000517805 0)
(0.995523 -0.000349716 0)
(0.994604 0.000944888 0)
(0.99862 -0.00502905 0)
(0.99627 0.00528885 0)
(1.00099 -0.00248283 0)
(0.998653 0.00157366 0)
(0.999613 -0.00255329 0)
(0.998287 -0.00634436 0)
(0.994124 -0.00288172 0)
(0.992649 -0.00313987 0)
(0.99217 0.00169627 0)
(0.994351 0.00231669 0)
(0.995816 0.00158174 0)
(0.996981 0.0028145 0)
(0.998836 0.00047818 0)
(0.998206 -0.000265613 0)
(0.997522 -0.000237556 0)
(0.997823 -0.00114332 0)
(0.997248 -0.000683626 0)
(0.996337 -0.000283563 0)
(0.995723 -0.000110729 0)
(0.994955 0.00093831 0)
(0.998694 -0.00478666 0)
(0.996355 0.00490157 0)
(1.00093 -0.00218823 0)
(0.998678 0.00126292 0)
(0.999419 -0.00225701 0)
(0.998342 -0.00622564 0)
(0.994302 -0.00273869 0)
(0.992894 -0.00293132 0)
(0.992457 0.00140682 0)
(0.994403 0.00229793 0)
(0.995898 0.00140567 0)
(0.996975 0.002624 0)
(0.998713 0.000573323 0)
(0.998223 -0.00029721 0)
(0.997529 -0.000105448 0)
(0.997856 -0.000912348 0)
(0.997389 -0.00063792 0)
(0.996467 -0.000102076 0)
(0.995908 0.0001246 0)
(0.995292 0.000950986 0)
(0.998768 -0.00453973 0)
(0.996448 0.00450931 0)
(1.00088 -0.0018981 0)
(0.998708 0.000967555 0)
(0.999233 -0.00197702 0)
(0.998395 -0.00607381 0)
(0.994493 -0.00262924 0)
(0.993133 -0.00270308 0)
(0.992749 0.0011221 0)
(0.994465 0.00225848 0)
(0.995977 0.0012616 0)
(0.996986 0.00241243 0)
(0.998595 0.000677876 0)
(0.998241 -0.000304659 0)
(0.997554 -5.32319e-06 0)
(0.997881 -0.000674159 0)
(0.997529 -0.00057185 0)
(0.996619 3.03691e-05 0)
(0.996086 0.000347185 0)
(0.99561 0.000991545 0)
(0.998842 -0.00428867 0)
(0.99655 0.00411402 0)
(1.00083 -0.00161948 0)
(0.998744 0.000693578 0)
(0.999053 -0.0017181 0)
(0.998444 -0.00588795 0)
(0.994698 -0.00255258 0)
(0.993367 -0.00246289 0)
(0.993043 0.000853573 0)
(0.994537 0.00219907 0)
(0.996052 0.0011508 0)
(0.997014 0.00218709 0)
(0.998484 0.000783955 0)
(0.998259 -0.00028199 0)
(0.997598 6.41665e-05 0)
(0.997905 -0.000444447 0)
(0.997662 -0.000475925 0)
(0.996789 0.000129706 0)
(0.996262 0.000544755 0)
(0.995904 0.00105957 0)
(0.998916 -0.00403535 0)
(0.996662 0.00371991 0)
(1.00078 -0.00135724 0)
(0.998784 0.000444398 0)
(0.998884 -0.00148174 0)
(0.998489 -0.00566865 0)
(0.994915 -0.00250318 0)
(0.993597 -0.00222086 0)
(0.993338 0.00061036 0)
(0.994623 0.00211237 0)
(0.99612 0.0010771 0)
(0.997058 0.00196195 0)
(0.998387 0.0008788 0)
(0.998273 -0.000228544 0)
(0.997658 0.000107178 0)
(0.997931 -0.00023514 0)
(0.997787 -0.000348543 0)
(0.996974 0.000211515 0)
(0.996443 0.00070766 0)
(0.996172 0.00115114 0)
(0.998991 -0.0037821 0)
(0.996783 0.00333255 0)
(1.00073 -0.00111521 0)
(0.998828 0.000227561 0)
(0.998725 -0.0012721 0)
(0.998529 -0.00542165 0)
(0.995144 -0.00246923 0)
(0.993825 -0.00198918 0)
(0.993631 0.000396775 0)
(0.994721 0.00200219 0)
(0.996185 0.00103026 0)
(0.997116 0.00174664 0)
(0.998305 0.000958087 0)
(0.998283 -0.000143142 0)
(0.997732 0.000136819 0)
(0.997966 -5.60931e-05 0)
(0.997903 -0.000198096 0)
(0.997166 0.000282127 0)
(0.996631 0.000827 0)
(0.996418 0.00125273 0)
(0.999064 -0.00352927 0)
(0.996913 0.00295369 0)
(1.00069 -0.000897496 0)
(0.998876 4.21079e-05 0)
(0.998577 -0.00108741 0)
(0.998565 -0.00514888 0)
(0.995384 -0.00244783 0)
(0.994053 -0.00177203 0)
(0.993921 0.000213972 0)
(0.994834 0.00187233 0)
(0.996246 0.00100343 0)
(0.997185 0.00153975 0)
(0.998243 0.00101456 0)
(0.998288 -3.38201e-05 0)
(0.997814 0.000158761 0)
(0.998013 8.99422e-05 0)
(0.998011 -4.11559e-05 0)
(0.997357 0.00035586 0)
(0.996831 0.000906389 0)
(0.996648 0.00134646 0)
(0.999137 -0.00327934 0)
(0.997052 0.00258885 0)
(1.00065 -0.000709365 0)
(0.998927 -0.000109743 0)
(0.998442 -0.000927872 0)
(0.998595 -0.00485596 0)
(0.995634 -0.00243003 0)
(0.994281 -0.00157271 0)
(0.994206 6.07479e-05 0)
(0.994962 0.00172612 0)
(0.996304 0.000993188 0)
(0.997264 0.00135162 0)
(0.998202 0.00104876 0)
(0.99829 8.90986e-05 0)
(0.997901 0.000179401 0)
(0.998075 0.000201713 0)
(0.998116 0.000102593 0)
(0.997544 0.000447644 0)
(0.997038 0.000966575 0)
(0.996867 0.00141866 0)
(0.999209 -0.00303412 0)
(0.997198 0.00224414 0)
(1.00062 -0.000553175 0)
(0.998982 -0.000227206 0)
(0.99832 -0.000793979 0)
(0.998621 -0.00455054 0)
(0.995891 -0.00240529 0)
(0.994512 -0.00139634 0)
(0.994486 -6.58841e-05 0)
(0.995105 0.00157892 0)
(0.996361 0.000999841 0)
(0.997349 0.00118341 0)
(0.998184 0.00105864 0)
(0.99829 0.000232591 0)
(0.997986 0.000211415 0)
(0.998148 0.000282158 0)
(0.998224 0.000233314 0)
(0.997727 0.000545294 0)
(0.997245 0.00102504 0)
(0.99708 0.00146162 0)
(0.99928 -0.00279526 0)
(0.997349 0.00192182 0)
(1.0006 -0.000427465 0)
(0.999041 -0.00031781 0)
(0.998211 -0.00067561 0)
(0.998643 -0.0042396 0)
(0.996153 -0.00236976 0)
(0.994744 -0.00123487 0)
(0.994762 -0.000166864 0)
(0.995265 0.00143316 0)
(0.996417 0.00100793 0)
(0.997436 0.00103716 0)
(0.998192 0.00104153 0)
(0.998292 0.000379875 0)
(0.998066 0.000257823 0)
(0.998233 0.00034127 0)
(0.998337 0.000353229 0)
(0.997906 0.000640875 0)
(0.99745 0.00108835 0)
(0.997285 0.00148647 0)
(0.99935 -0.00256525 0)
(0.997505 0.00162853 0)
(1.00059 -0.000337543 0)
(0.999104 -0.000380659 0)
(0.998116 -0.000572199 0)
(0.998662 -0.0039321 0)
(0.996419 -0.0023225 0)
(0.994979 -0.00108556 0)
(0.995033 -0.000247186 0)
(0.99544 0.00128885 0)
(0.996476 0.00102689 0)
(0.997524 0.000910035 0)
(0.998225 0.000999255 0)
(0.998299 0.00051721 0)
(0.998137 0.000331374 0)
(0.998326 0.000386116 0)
(0.998459 0.00043856 0)
(0.998084 0.000728688 0)
(0.997649 0.00115165 0)
(0.997476 0.00152362 0)
(0.999418 -0.00234523 0)
(0.997663 0.00136814 0)
(1.00059 -0.0002821 0)
(0.999173 -0.000422877 0)
(0.998034 -0.000479119 0)
(0.998679 -0.00363156 0)
(0.99669 -0.00226486 0)
(0.995215 -0.000944334 0)
(0.995296 -0.00031112 0)
(0.995634 0.0011362 0)
(0.996537 0.00106663 0)
(0.997608 0.000813494 0)
(0.998283 0.000921839 0)
(0.99832 0.000635619 0)
(0.998198 0.000439641 0)
(0.998418 0.000430818 0)
(0.998588 0.000495558 0)
(0.998268 0.000796217 0)
(0.997849 0.00120291 0)
(0.997656 0.00157331 0)
(0.999484 -0.00213874 0)
(0.997821 0.001148 0)
(1.00059 -0.000258245 0)
(0.999246 -0.000453989 0)
(0.997964 -0.000386616 0)
(0.998695 -0.00334353 0)
(0.996964 -0.00220004 0)
(0.995452 -0.000806847 0)
(0.99555 -0.000357629 0)
(0.995846 0.000974522 0)
(0.996607 0.00111537 0)
(0.997681 0.000759555 0)
(0.998362 0.000815809 0)
(0.998364 0.000726251 0)
(0.998254 0.000566562 0)
(0.998502 0.000485213 0)
(0.998722 0.000535258 0)
(0.998455 0.000844267 0)
(0.998055 0.00124175 0)
(0.997833 0.00161315 0)
(0.999548 -0.0019466 0)
(0.997976 0.000967726 0)
(1.00061 -0.000264783 0)
(0.999327 -0.000477129 0)
(0.997906 -0.000293227 0)
(0.998707 -0.003071 0)
(0.997242 -0.00213631 0)
(0.995691 -0.000663992 0)
(0.995792 -0.000382794 0)
(0.996076 0.000803213 0)
(0.996691 0.00116296 0)
(0.99774 0.000754007 0)
(0.998456 0.000703354 0)
(0.998436 0.000764579 0)
(0.998307 0.000694737 0)
(0.998573 0.000573181 0)
(0.998856 0.000566258 0)
(0.99865 0.000863977 0)
(0.998266 0.00126756 0)
(0.998013 0.00163044 0)
(0.99961 -0.00176877 0)
(0.998127 0.000823834 0)
(1.00062 -0.000295052 0)
(0.999416 -0.000500556 0)
(0.99786 -0.000195547 0)
(0.998715 -0.00280605 0)
(0.997525 -0.0020792 0)
(0.995935 -0.000514211 0)
(0.996017 -0.000374926 0)
(0.996323 0.000612545 0)
(0.996796 0.00118898 0)
(0.997783 0.000808666 0)
(0.99855 0.0006107 0)
(0.998539 0.00074354 0)
(0.998375 0.000806411 0)
(0.998631 0.000690797 0)
(0.998976 0.000608255 0)
(0.998848 0.000855007 0)
(0.998485 0.00127346 0)
(0.998203 0.00162302 0)
(0.99967 -0.00160742 0)
(0.99827 0.000716365 0)
(1.00064 -0.000338219 0)
(0.999515 -0.000533749 0)
(0.997826 -8.61559e-05 0)
(0.998715 -0.00254652 0)
(0.997812 -0.00203721 0)
(0.996184 -0.000371203 0)
(0.99622 -0.000319454 0)
(0.996579 0.000415165 0)
(0.996932 0.00117583 0)
(0.997817 0.000905113 0)
(0.998633 0.000558706 0)
(0.998667 0.000681262 0)
(0.998465 0.000883449 0)
(0.998682 0.000812913 0)
(0.999075 0.000678883 0)
(0.999044 0.00083988 0)
(0.99871 0.00124856 0)
(0.998401 0.00159934 0)
(0.999726 -0.00146282 0)
(0.998405 0.000640128 0)
(1.00066 -0.000386381 0)
(0.999624 -0.000580845 0)
(0.997805 2.51763e-05 0)
(0.998704 -0.00227958 0)
(0.9981 -0.00201818 0)
(0.996447 -0.000242908 0)
(0.9964 -0.000202046 0)
(0.996835 0.000232894 0)
(0.997105 0.00110815 0)
(0.99785 0.00101872 0)
(0.998695 0.000563055 0)
(0.998812 0.000599458 0)
(0.998588 0.000900918 0)
(0.998738 0.000930092 0)
(0.999153 0.000777293 0)
(0.99922 0.000841842 0)
(0.998941 0.00119398 0)
(0.998612 0.00155119 0)
(0.99978 -0.00133404 0)
(0.99853 0.000589466 0)
(1.00067 -0.000431029 0)
(0.999743 -0.000645877 0)
(0.9978 0.000129198 0)
(0.998679 -0.00199622 0)
(0.998387 -0.00201453 0)
(0.99673 -0.000144703 0)
(0.996556 -3.04882e-05 0)
(0.997077 9.23533e-05 0)
(0.997315 0.000977569 0)
(0.997896 0.00111915 0)
(0.99873 0.000635134 0)
(0.998953 0.000533657 0)
(0.998743 0.000862191 0)
(0.998814 0.00102144 0)
(0.999214 0.000890822 0)
(0.999368 0.000867227 0)
(0.999162 0.00113814 0)
(0.99883 0.00147959 0)
(0.99983 -0.00122064 0)
(0.998644 0.000557163 0)
(1.00067 -0.000460687 0)
(0.99987 -0.000728631 0)
(0.997814 0.000222925 0)
(0.998637 -0.00169786 0)
(0.998664 -0.00200883 0)
(0.997038 -9.68991e-05 0)
(0.996694 0.00018421 0)
(0.997289 1.66984e-05 0)
(0.997556 0.000798371 0)
(0.997974 0.00118001 0)
(0.998745 0.000752148 0)
(0.999075 0.000505103 0)
(0.998924 0.000789623 0)
(0.998921 0.00106107 0)
(0.999266 0.00100898 0)
(0.999486 0.000922154 0)
(0.999365 0.00109453 0)
(0.999045 0.00140391 0)
(0.999876 -0.00112025 0)
(0.998748 0.000535701 0)
(1.00066 -0.000472048 0)
(1 -0.000824404 0)
(0.99785 0.000300583 0)
(0.998578 -0.00137599 0)
(0.998923 -0.00199295 0)
(0.997376 -0.000115797 0)
(0.996826 0.000417782 0)
(0.997459 2.76075e-05 0)
(0.997814 0.000601632 0)
(0.998093 0.00118027 0)
(0.998749 0.000889488 0)
(0.999165 0.000530647 0)
(0.999113 0.000707935 0)
(0.999067 0.00104098 0)
(0.99933 0.00110086 0)
(0.999571 0.00101149 0)
(0.999541 0.00107201 0)
(0.99925 0.00132936 0)
(0.999918 -0.0010307 0)
(0.998841 0.000520923 0)
(1.00064 -0.000459564 0)
(1.00014 -0.000927621 0)
(0.997912 0.000345405 0)
(0.998502 -0.00103357 0)
(0.999152 -0.00194507 0)
(0.997744 -0.000200142 0)
(0.996967 0.000628851 0)
(0.997579 0.000132385 0)
(0.998069 0.000426199 0)
(0.99826 0.00110802 0)
(0.998762 0.0010192 0)
(0.99922 0.000616094 0)
(0.999289 0.000647151 0)
(0.999244 0.000976465 0)
(0.999423 0.00114579 0)
(0.999638 0.00110644 0)
(0.999677 0.00108661 0)
(0.999442 0.00125033 0)
(0.999956 -0.000949921 0)
(0.998926 0.000503635 0)
(1.0006 -0.000417135 0)
(1.00027 -0.0010339 0)
(0.998003 0.000351743 0)
(0.998415 -0.000681563 0)
(0.999339 -0.00184451 0)
(0.998135 -0.000336234 0)
(0.997135 0.000791946 0)
(0.997655 0.000312089 0)
(0.998298 0.000306823 0)
(0.998468 0.000980577 0)
(0.998802 0.00111236 0)
(0.999243 0.000740306 0)
(0.999434 0.000629036 0)
(0.99944 0.000887874 0)
(0.999553 0.0011359 0)
(0.999707 0.00117542 0)
(0.999771 0.00113482 0)
(0.999607 0.00118264 0)
(0.999988 -0.000873169 0)
(0.999004 0.000478117 0)
(1.00054 -0.000350502 0)
(1.0004 -0.00113119 0)
(0.998127 0.000318117 0)
(0.998322 -0.000342347 0)
(0.999472 -0.00168599 0)
(0.998538 -0.000508215 0)
(0.997343 0.00087532 0)
(0.997697 0.000542485 0)
(0.998481 0.000261233 0)
(0.998705 0.000823067 0)
(0.998884 0.00115904 0)
(0.99925 0.000879396 0)
(0.999537 0.000661383 0)
(0.999631 0.000809042 0)
(0.999719 0.00107055 0)
(0.999799 0.00120152 0)
(0.999836 0.0011969 0)
(0.999728 0.00115749 0)
(1.00002 -0.000800369 0)
(0.999077 0.000443312 0)
(1.00046 -0.000261869 0)
(1.00051 -0.00120506 0)
(0.998283 0.000239395 0)
(0.998236 -4.11997e-05 0)
(0.999547 -0.00146467 0)
(0.998934 -0.000685163 0)
(0.997604 0.000863509 0)
(0.997723 0.000784666 0)
(0.998605 0.000306516 0)
(0.998953 0.000666475 0)
(0.999014 0.00113921 0)
(0.999255 0.00101974 0)
(0.999595 0.000735276 0)
(0.999794 0.000761152 0)
(0.999904 0.000982288 0)
(0.99993 0.00116869 0)
(0.999898 0.00124239 0)
(0.9998 0.00117251 0)
(1.00004 -0.000728215 0)
(0.999148 0.000392692 0)
(1.00037 -0.00015823 0)
(1.00061 -0.00124783 0)
(0.998468 0.00012526 0)
(0.998167 0.000223966 0)
(0.999562 -0.00118846 0)
(0.999304 -0.000828922 0)
(0.99792 0.000758174 0)
(0.99776 0.000997632 0)
(0.998666 0.000428953 0)
(0.999179 0.000548609 0)
(0.999196 0.00105824 0)
(0.999282 0.00113091 0)
(0.999614 0.000850949 0)
(0.999918 0.000741317 0)
(1.00008 0.000905713 0)
(1.00009 0.00108771 0)
(0.999985 0.00123916 0)
(0.999835 0.00120845 0)
(1.00005 -0.000654135 0)
(0.999219 0.000328085 0)
(1.00027 -5.29959e-05 0)
(1.00067 -0.0012514 0)
(0.99868 -1.41795e-05 0)
(0.998126 0.000440557 0)
(0.999522 -0.000870737 0)
(0.999625 -0.000911051 0)
(0.998283 0.000584126 0)
(0.99783 0.00115065 0)
(0.998676 0.000603448 0)
(0.999366 0.000486305 0)
(0.999412 0.000942294 0)
(0.999349 0.00118219 0)
(0.999603 0.000990487 0)
(0.999992 0.000760392 0)
(1.00024 0.0008326 0)
(1.00027 0.000995706 0)
(1.00011 0.00117059 0)
(0.999866 0.00122942 0)
(1.00006 -0.000580352 0)
(0.99929 0.000251934 0)
(1.00016 4.95603e-05 0)
(1.00071 -0.00121187 0)
(0.99891 -0.000171512 0)
(0.998124 0.000582107 0)
(0.999438 -0.000533657 0)
(0.999881 -0.000912628 0)
(0.998676 0.00037109 0)
(0.997951 0.00121989 0)
(0.998648 0.000809135 0)
(0.999493 0.000485239 0)
(0.999642 0.000816992 0)
(0.99947 0.00116831 0)
(0.999589 0.00111518 0)
(1.00001 0.000837167 0)
(1.00037 0.000765461 0)
(1.00044 0.00090031 0)
(1.00027 0.00106424 0)
(0.999932 0.00119334 0)
(1.00007 -0.000503607 0)
(0.999363 0.000165746 0)
(1.00005 0.000144785 0)
(1.00071 -0.00112694 0)
(0.999148 -0.000333611 0)
(0.998167 0.000650265 0)
(0.999328 -0.000212601 0)
(1.00006 -0.000825286 0)
(0.999077 0.000150721 0)
(0.998137 0.00118792 0)
(0.998607 0.00100948 0)
(0.999554 0.000548847 0)
(0.999859 0.000703495 0)
(0.99964 0.00109784 0)
(0.999601 0.00119391 0)
(0.999968 0.000950076 0)
(1.00043 0.000743059 0)
(1.0006 0.000786911 0)
(1.00045 0.000949757 0)
(1.00005 0.00110193 0)
(1.00007 -0.000427019 0)
(0.999438 7.95262e-05 0)
(0.999954 0.000222981 0)
(1.00068 -0.000997572 0)
(0.999382 -0.000479706 0)
(0.998259 0.000648815 0)
(0.999213 8.13881e-05 0)
(1.00016 -0.00067589 0)
(0.999455 -3.4268e-05 0)
(0.998389 0.00106511 0)
(0.998584 0.00116369 0)
(0.999547 0.000669483 0)
(1.00004 0.000620419 0)
(0.999848 0.000981792 0)
(0.99966 0.001212 0)
(0.999907 0.00105398 0)
(1.00042 0.000784717 0)
(1.00071 0.000685536 0)
(1.00062 0.000817165 0)
(1.0002 0.000987002 0)
(1.00007 -0.000352568 0)
(0.999514 1.01549e-06 0)
(0.99987 0.000276817 0)
(1.00063 -0.000838222 0)
(0.999601 -0.000592057 0)
(0.998398 0.000584313 0)
(0.999107 0.000334617 0)
(1.00019 -0.000476294 0)
(0.999788 -0.000168071 0)
(0.998693 0.000887204 0)
(0.998606 0.00124233 0)
(0.99949 0.000817082 0)
(1.00015 0.000596942 0)
(1.00007 0.000842701 0)
(0.999774 0.00116067 0)
(0.999859 0.00112535 0)
(1.00034 0.000859771 0)
(1.00075 0.000643595 0)
(1.00079 0.000670753 0)
(1.00039 0.000855437 0)
(1.00006 -0.000280385 0)
(0.999591 -6.79927e-05 0)
(0.999804 0.000303409 0)
(1.00055 -0.000664236 0)
(0.999794 -0.000662298 0)
(0.998579 0.000479908 0)
(0.999031 0.000525502 0)
(1.00015 -0.000244677 0)
(1.00005 -0.000231632 0)
(0.99903 0.000683828 0)
(0.998686 0.00124441 0)
(0.999413 0.000956779 0)
(1.00019 0.000625858 0)
(1.00027 0.000725977 0)
(0.99994 0.00104331 0)
(0.999849 0.00114852 0)
(1.00023 0.000937908 0)
(1.0007 0.000668275 0)
(1.00091 0.000560955 0)
(1.0006 0.00070654 0)
(1.00005 -0.000214178 0)
(0.999665 -0.000122478 0)
(0.99976 0.000302354 0)
(1.00045 -0.000486068 0)
(0.999954 -0.000683486 0)
(0.998792 0.000352916 0)
(0.998994 0.000647015 0)
(1.00007 -2.34105e-05 0)
(1.00025 -0.000216165 0)
(0.999372 0.000489339 0)
(0.998832 0.00116718 0)
(0.999338 0.00107093 0)
(1.00017 0.000692196 0)