/*--------------------------------*- C++ -*----------------------------------*\
| =========                 |                                                 |
| \\      /  F ield         | OpenFOAM: The Open Source CFD Toolbox           |
|  \\    /   O peration     | Version:  2106                                  |
|   \\  /    A nd           | Website:  www.openfoam.com                      |
|    \\/     M anipulation  |                                                 |
\*---------------------------------------------------------------------------*/
FoamFile
{
    version     2.0;
    format      ascii;
    arch        "LSB;label=32;scalar=64";
    class       surfaceScalarField;
    location    "0.685";
    object      phi;
}
// * * * * * * * * * * * * * * * * * * * * * * * * * * * * * * * * * * * * * //

dimensions      [0 3 -1 0 0 0 0];

oriented        oriented;

internalField   nonuniform List<scalar> 
19000
(
1.15938e-06
-7.85985e-07
1.15795e-06
7.68537e-07
1.19736e-06
-5.20213e-07
1.21623e-06
6.84572e-08
1.22552e-06
2.9298e-07
1.1832e-06
4.36225e-07
1.18883e-06
1.14283e-07
1.17433e-06
-9.03168e-08
1.18103e-06
-5.47878e-07
1.191e-06
-1.72462e-07
1.20141e-06
-2.30452e-07
1.20283e-06
1.06935e-07
1.21574e-06
-1.62997e-07
1.20786e-06
9.15832e-08
1.20888e-06
2.04237e-08
1.19665e-06
1.76031e-07
1.19786e-06
1.0899e-07
1.18846e-06
1.19471e-07
1.18682e-06
8.70495e-08
5.52299e-08
1.16026e-06
1.21897e-06
-7.80697e-07
1.21981e-06
7.67701e-07
1.2602e-06
-5.60602e-07
1.27892e-06
4.97313e-08
1.28534e-06
2.86562e-07
1.24986e-06
4.71704e-07
1.2485e-06
1.15648e-07
1.23756e-06
-7.93802e-08
1.2423e-06
-5.52614e-07
1.25352e-06
-1.83685e-07
1.26168e-06
-2.38613e-07
1.26942e-06
9.91965e-08
1.27647e-06
-1.70044e-07
1.27693e-06
9.11268e-08
1.26667e-06
3.06828e-08
1.26859e-06
1.74105e-07
1.25093e-06
1.26649e-07
1.26204e-06
1.08365e-07
1.23465e-06
1.14436e-07
4.53558e-08
1.24453e-06
1.28042e-06
-7.7833e-07
1.28825e-06
7.59869e-07
1.32297e-06
-5.95321e-07
1.34678e-06
2.59199e-08
1.34889e-06
2.84445e-07
1.32404e-06
4.9656e-07
1.31206e-06
1.2763e-07
1.30422e-06
-7.15424e-08
1.30211e-06
-5.50503e-07
1.31786e-06
-1.99434e-07
1.32174e-06
-2.42496e-07
1.33732e-06
8.36179e-08
1.33582e-06
-1.68546e-07
1.34388e-06
8.30613e-08
1.32718e-06
4.73842e-08
1.33197e-06
1.69321e-07
1.31369e-06
1.44922e-07
1.31839e-06
1.03674e-07
1.30156e-06
1.31257e-07
5.4566e-08
1.29235e-06
1.34383e-06
-7.7806e-07
1.35771e-06
7.45994e-07
1.38277e-06
-6.20388e-07
1.41339e-06
-4.69878e-09
1.41369e-06
2.84154e-07
1.39798e-06
5.12264e-07
1.37693e-06
1.48678e-07
1.36838e-06
-6.29866e-08
1.36001e-06
-5.42137e-07
1.37765e-06
-2.17074e-07
1.38162e-06
-2.46461e-07
1.39925e-06
6.59892e-08
1.39513e-06
-1.6443e-07
1.40337e-06
7.48179e-08
1.39019e-06
6.05701e-08
1.39126e-06
1.68251e-07
1.37885e-06
1.57332e-07
1.377e-06
1.05525e-07
1.36562e-06
1.42633e-07
6.88134e-08
1.35137e-06
1.40904e-06
-7.78746e-07
1.426e-06
7.29032e-07
1.43983e-06
-6.3422e-07
1.47503e-06
-3.989e-08
1.47689e-06
2.82294e-07
1.46703e-06
5.22116e-07
1.44173e-06
1.73984e-07
1.42979e-06
-5.10537e-08
1.41829e-06
-5.30628e-07
1.43469e-06
-2.33481e-07
1.44146e-06
-2.53226e-07
1.45812e-06
4.93255e-08
1.45451e-06
-1.60822e-07
1.46162e-06
6.77112e-08
1.45314e-06
6.90479e-08
1.45337e-06
1.68023e-07
1.44384e-06
1.6686e-07
1.43997e-06
1.09394e-07
1.42941e-06
1.53195e-07
8.43075e-08
1.41392e-06
1.47621e-06
-7.79283e-07
1.49313e-06
7.12112e-07
1.49706e-06
-6.38148e-07
1.53198e-06
-7.48095e-08
1.53724e-06
2.77031e-07
1.53083e-06
5.28527e-07
1.50645e-06
1.98363e-07
1.49198e-06
-3.65762e-08
1.47972e-06
-5.18369e-07
1.49345e-06
-2.47214e-07
1.50194e-06
-2.61714e-07
1.51729e-06
3.39709e-08
1.51416e-06
-1.57692e-07
1.52123e-06
6.06396e-08
1.51577e-06
7.4508e-08
1.51738e-06
1.66415e-07
1.50935e-06
1.74895e-07
1.50454e-06
1.14196e-07
1.4948e-06
1.62934e-07
1.009e-07
1.47821e-06
1.54569e-06
-7.78754e-07
1.56071e-06
6.97091e-07
1.55782e-06
-6.35259e-07
1.58754e-06
-1.04525e-07
1.59558e-06
2.68992e-07
1.59197e-06
5.32131e-07
1.57206e-06
2.18275e-07
1.55817e-06
-2.26861e-08
1.54603e-06
-5.06227e-07
1.55676e-06
-2.57948e-07
1.56447e-06
-2.6942e-07
1.57848e-06
1.99542e-08
1.57505e-06
-1.54257e-07
1.58249e-06
5.3201e-08
1.57867e-06
7.83207e-08
1.58179e-06
1.63302e-07
1.57516e-06
1.81517e-07
1.56963e-06
1.19735e-07
1.56138e-06
1.71175e-07
1.17912e-07
1.54437e-06
1.6179e-06
-7.76522e-07
1.6308e-06
6.8419e-07
1.62424e-06
-6.28697e-07
1.6457e-06
-1.25994e-07
1.65442e-06
2.60277e-07
1.65398e-06
5.32566e-07
1.64007e-06
2.32186e-07
1.62966e-06
-1.2278e-08
1.61772e-06
-4.94285e-07
1.6255e-06
-2.65724e-07
1.63059e-06
-2.74513e-07
1.64301e-06
7.54035e-09
1.63866e-06
-1.49908e-07
1.64602e-06
4.58403e-08
1.6429e-06
8.14432e-08
1.64684e-06
1.59358e-07
1.64171e-06
1.86646e-07
1.63569e-06
1.25754e-07
1.62951e-06
1.7736e-07
1.34388e-07
1.61303e-06
1.69334e-06
-7.72286e-07
1.70495e-06
6.72581e-07
1.69683e-06
-6.20576e-07
1.70952e-06
-1.38693e-07
1.71697e-06
2.52836e-07
1.72e-06
5.29535e-07
1.71205e-06
2.40135e-07
1.70634e-06
-6.57004e-09
1.6945e-06
-4.82441e-07
1.6996e-06
-2.70827e-07
1.7014e-06
-2.76311e-07
1.71203e-06
-3.09098e-09
1.70643e-06
-1.44313e-07
1.71305e-06
3.92222e-08
1.70999e-06
8.4509e-08
1.71406e-06
1.55282e-07
1.7105e-06
1.90208e-07
1.70431e-06
1.3195e-07
1.70041e-06
1.81259e-07
1.49502e-07
1.68529e-06
1.77252e-06
-7.66085e-07
1.78387e-06
6.6123e-07
1.77512e-06
-6.1182e-07
1.78049e-06
-1.44068e-07
1.78578e-06
2.47545e-07
1.7921e-06
5.23219e-07
1.78907e-06
2.43163e-07
1.78767e-06
-5.17637e-09
1.77577e-06
-4.70532e-07
1.7787e-06
-2.73762e-07
1.77738e-06
-2.74989e-07
1.78629e-06
-1.20044e-08
1.7794e-06
-1.37416e-07
1.78482e-06
3.37973e-08
1.78156e-06
8.77695e-08
1.7853e-06
1.51541e-07
1.78337e-06
1.92141e-07
1.77723e-06
1.38083e-07
1.77545e-06
1.83042e-07
1.62693e-07
1.76226e-06
1.85587e-06
-7.58208e-07
1.86768e-06
6.49422e-07
1.85839e-06
-6.02532e-07
1.85878e-06
-1.44453e-07
1.86209e-06
2.44235e-07
1.87117e-06
5.14132e-07
1.87159e-06
2.42743e-07
1.87331e-06
-6.88951e-09
1.86111e-06
-4.58332e-07
1.86243e-06
-2.75088e-07
1.8586e-06
-2.71158e-07
1.86605e-06
-1.94578e-08
1.85806e-06
-1.29423e-07
1.86218e-06
2.9677e-08
1.85882e-06
9.11292e-08
1.862e-06
1.48362e-07
1.86167e-06
1.92471e-07
1.85576e-06
1.43998e-07
1.85559e-06
1.8321e-07
1.73658e-07
1.84462e-06
1.94367e-06
-7.49035e-07
1.95623e-06
6.36863e-07
1.94614e-06
-5.92451e-07
1.94382e-06
-1.42124e-07
1.94585e-06
2.42204e-07
1.95716e-06
5.02814e-07
1.95962e-06
2.4029e-07
1.96314e-06
-1.04162e-08
1.9504e-06
-4.45591e-07
1.95056e-06
-2.75245e-07
1.94492e-06
-2.65523e-07
1.95125e-06
-2.57874e-08
1.94255e-06
-1.20723e-07
1.94551e-06
2.67188e-08
1.94235e-06
9.42916e-08
1.94492e-06
1.45794e-07
1.94603e-06
1.91362e-07
1.94045e-06
1.49577e-07
1.94123e-06
1.82426e-07
1.82302e-07
1.93259e-06
2.03606e-06
-7.38902e-07
2.0494e-06
6.23517e-07
2.03821e-06
-5.8126e-07
2.03488e-06
-1.38793e-07
2.03636e-06
2.40725e-07
2.0495e-06
4.89669e-07
2.05292e-06
2.36875e-07
2.05727e-06
-1.47718e-08
2.04379e-06
-4.32111e-07
2.04305e-06
-2.74497e-07
2.03622e-06
-2.58699e-07
2.04172e-06
-3.12887e-08
2.03279e-06
-1.11787e-07
2.03482e-06
2.46815e-08
2.03219e-06
9.6924e-08
2.03421e-06
1.43781e-07
2.03646e-06
1.89112e-07
2.03133e-06
1.54706e-07
2.03243e-06
1.81319e-07
1.88691e-07
2.02605e-06
2.13313e-06
-7.28035e-07
2.14722e-06
6.09431e-07
2.13469e-06
-5.68734e-07
2.13142e-06
-1.35515e-07
2.13283e-06
2.39309e-07
2.14755e-06
4.7495e-07
2.15125e-06
2.33173e-07
2.15585e-06
-1.93666e-08
2.14155e-06
-4.17808e-07
2.14002e-06
-2.72969e-07
2.13248e-06
-2.51157e-07
2.13733e-06
-3.61419e-08
2.12859e-06
-1.03052e-07
2.12993e-06
2.33434e-08
2.12807e-06
9.87861e-08
2.12966e-06
1.42188e-07
2.13266e-06
1.86116e-07
2.12811e-06
1.59259e-07
2.12911e-06
1.80319e-07
1.93049e-07
2.12475e-06
2.235e-06
-7.16544e-07
2.24981e-06
5.94615e-07
2.23585e-06
-5.54767e-07
2.23317e-06
-1.32835e-07
2.23471e-06
2.37761e-07
2.25084e-06
4.58824e-07
2.25448e-06
2.29532e-07
2.25904e-06
-2.39254e-08
2.24396e-06
-4.0273e-07
2.24169e-06
-2.70702e-07
2.23378e-06
-2.43246e-07
2.23804e-06
-4.03958e-08
2.22983e-06
-9.48452e-08
2.23062e-06
2.25498e-08
2.22961e-06
9.9799e-08
2.23097e-06
1.40831e-07
2.23428e-06
1.82802e-07
2.23043e-06
1.63106e-07
2.23112e-06
1.79633e-07
1.95686e-07
2.22848e-06
2.34179e-06
-7.04457e-07
2.35738e-06
5.79023e-07
2.34196e-06
-5.39351e-07
2.3401e-06
-1.30973e-07
2.34176e-06
2.36108e-07
2.35915e-06
4.41433e-07
2.36259e-06
2.2609e-07
2.36702e-06
-2.83587e-08
2.35133e-06
-3.87034e-07
2.34832e-06
-2.6769e-07
2.34031e-06
-2.3524e-07
2.34392e-06
-4.40033e-08
2.33643e-06
-8.73536e-08
2.33678e-06
2.21986e-08
2.33652e-06
1.00053e-07
2.33785e-06
1.39508e-07
2.34109e-06
1.79558e-07
2.33804e-06
1.66152e-07
2.33839e-06
1.79283e-07
1.96936e-07
2.33714e-06
2.45369e-06
-6.91755e-07
2.47014e-06
5.62574e-07
2.45332e-06
-5.2253e-07
2.45234e-06
-1.29993e-07
2.45396e-06
2.3449e-07
2.47247e-06
4.2292e-07
2.4757e-06
2.22858e-07
2.48e-06
-3.26506e-08
2.46391e-06
-3.7095e-07
2.46012e-06
-2.63903e-07
2.45225e-06
-2.27366e-07
2.45513e-06
-4.68803e-08
2.4484e-06
-8.06233e-08
2.4484e-06
2.21947e-08
2.44868e-06
9.977e-08
2.45016e-06
1.38035e-07
2.45307e-06
1.76649e-07
2.45081e-06
1.68403e-07
2.45094e-06
1.79152e-07
1.97114e-07
2.45077e-06
2.57094e-06
-6.78403e-07
2.58834e-06
5.45175e-07
2.57018e-06
-5.04368e-07
2.57007e-06
-1.29888e-07
2.57149e-06
2.3307e-07
2.59097e-06
4.03441e-07
2.59404e-06
2.19785e-07
2.59818e-06
-3.67845e-08
2.58197e-06
-3.54739e-07
2.57735e-06
-2.59289e-07
2.5698e-06
-2.19817e-07
2.57189e-06
-4.89661e-08
2.56585e-06
-7.45819e-08
2.56563e-06
2.24106e-08
2.56616e-06
9.92444e-08
2.5679e-06
1.3629e-07
2.57044e-06
1.7411e-07
2.56878e-06
1.70063e-07
2.5689e-06
1.7904e-07
1.96487e-07
2.56952e-06
2.69379e-06
-6.64365e-07
2.71221e-06
5.26755e-07
2.69278e-06
-4.84932e-07
2.69352e-06
-1.30634e-07
2.69462e-06
2.31977e-07
2.7149e-06
3.83158e-07
2.7179e-06
2.16783e-07
2.72182e-06
-4.07066e-08
2.70576e-06
-3.38672e-07
2.70024e-06
-2.53778e-07
2.69317e-06
-2.12741e-07
2.69447e-06
-5.02657e-08
2.68895e-06
-6.90642e-08
2.68868e-06
2.26762e-08
2.68916e-06
9.87684e-08
2.69119e-06
1.34256e-07
2.6935e-06
1.71799e-07
2.69216e-06
1.71409e-07
2.69244e-06
1.78762e-07
1.95245e-07
2.69368e-06
2.82251e-06
-6.49611e-07
2.842e-06
5.07264e-07
2.82136e-06
-4.64287e-07
2.82293e-06
-1.32201e-07
2.82363e-06
2.31277e-07
2.84454e-06
3.6224e-07
2.84759e-06
2.13736e-07
2.8512e-06
-4.43158e-08
2.83553e-06
-3.23006e-07
2.82906e-06
-2.47301e-07
2.82253e-06
-2.06217e-07
2.82314e-06
-5.08684e-08
2.81792e-06
-6.38448e-08
2.81778e-06
2.28081e-08
2.818e-06
9.85563e-08
2.82021e-06
1.3204e-07
2.82251e-06
1.695e-07
2.82128e-06
1.72641e-07
2.82179e-06
1.78249e-07
1.93482e-07
2.82356e-06
2.95741e-06
-6.34121e-07
2.97799e-06
4.86684e-07
2.9562e-06
-4.42501e-07
2.95855e-06
-1.34549e-07
2.95885e-06
2.30978e-07
2.98022e-06
3.40865e-07
2.98345e-06
2.10506e-07
2.98661e-06
-4.74693e-08
2.97158e-06
-3.07975e-07
2.96409e-06
-2.39816e-07
2.95811e-06
-2.00233e-07
2.95818e-06
-5.09455e-08
2.95301e-06
-5.86719e-08
2.95316e-06
2.2657e-08
2.95304e-06
9.86803e-08
2.95521e-06
1.29871e-07
2.95772e-06
1.66984e-07
2.95656e-06
1.73804e-07
2.95723e-06
1.77577e-07
1.91223e-07
2.95949e-06
3.09877e-06
-6.17884e-07
3.12044e-06
4.65018e-07
3.09758e-06
-4.19645e-07
3.10066e-06
-1.37627e-07
3.1006e-06
2.31033e-07
3.12225e-06
3.19219e-07
3.12582e-06
2.0693e-07
3.12835e-06
-4.99964e-08
3.11416e-06
-2.93781e-07
3.10567e-06
-2.31325e-07
3.10011e-06
-1.94682e-07
3.09991e-06
-5.07379e-08
3.09453e-06
-5.32942e-08
3.09504e-06
2.21442e-08
3.09466e-06
9.9058e-08
3.09649e-06
1.2805e-07
3.09936e-06
1.64105e-07
3.0984e-06
1.74767e-07
3.09907e-06
1.76913e-07
1.8848e-07
3.10181e-06
3.24692e-06
-6.00897e-07
3.26965e-06
4.42293e-07
3.24581e-06
-3.9581e-07
3.24954e-06
-1.41357e-07
3.24922e-06
2.31353e-07
3.27094e-06
2.97505e-07
3.27504e-06
2.02825e-07
3.27676e-06
-5.17158e-08
3.26354e-06
-2.80558e-07
3.25413e-06
-2.21912e-07
3.24882e-06
-1.89374e-07
3.24859e-06
-5.05069e-08
3.24281e-06
-4.75134e-08
3.24365e-06
2.12963e-08
3.24321e-06
9.95003e-08
3.24443e-06
1.26832e-07
3.24766e-06
1.6087e-07
3.24715e-06
1.7528e-07
3.24766e-06
1.76407e-07
1.85335e-07
3.2508e-06
3.4022e-06
-5.83168e-07
3.42594e-06
4.18557e-07
3.40123e-06
-3.71105e-07
3.40552e-06
-1.45641e-07
3.40505e-06
2.31817e-07
3.42662e-06
2.7594e-07
3.43145e-06
1.97995e-07
3.43218e-06
-5.24525e-08
3.42e-06
-2.68379e-07
3.40982e-06
-2.11733e-07
3.40451e-06
-1.84063e-07
3.40452e-06
-5.05089e-08
3.39821e-06
-4.12073e-08
3.39926e-06
2.02504e-08
3.39898e-06
9.97775e-08
3.39946e-06
1.26349e-07
3.40289e-06
1.57436e-07
3.40311e-06
1.75062e-07
3.40342e-06
1.76097e-07
1.81971e-07
3.40679e-06
3.56495e-06
-5.6471e-07
3.58963e-06
3.9388e-07
3.56419e-06
-3.45664e-07
3.56891e-06
-1.50357e-07
3.56844e-06
2.32281e-07
3.58962e-06
2.5476e-07
3.59538e-06
1.92238e-07
3.59498e-06
-5.20533e-08
3.58385e-06
-2.57254e-07
3.57313e-06
-2.01007e-07
3.56754e-06
-1.78475e-07
3.56797e-06
-5.09411e-08
3.56114e-06
-3.43728e-08
3.56212e-06
1.92641e-08
3.56225e-06
9.96551e-08
3.56199e-06
1.26605e-07
3.56539e-06
1.54035e-07
3.56654e-06
1.73916e-07
3.56678e-06
1.75857e-07
1.78648e-07
3.5701e-06
3.73554e-06
-5.45547e-07
3.76107e-06
3.68352e-07
3.73506e-06
-3.19651e-07
3.74006e-06
-1.5536e-07
3.73976e-06
2.32585e-07
3.7603e-06
2.34214e-07
3.76719e-06
1.85357e-07
3.76554e-06
-5.04033e-08
3.75541e-06
-2.47131e-07
3.7444e-06
-1.89997e-07
3.73828e-06
-1.72353e-07
3.73925e-06
-5.19067e-08
3.732e-06
-2.71291e-08
3.73257e-06
1.86945e-08
3.7333e-06
9.89269e-08
3.73243e-06
1.2747e-07
3.73556e-06
1.50908e-07
3.73769e-06
1.71781e-07
3.73812e-06
1.75432e-07
1.75615e-07
3.74115e-06
3.91435e-06
-5.2571e-07
3.94062e-06
3.42084e-07
3.91422e-06
-2.93255e-07
3.91935e-06
-1.60487e-07
3.91938e-06
2.32555e-07
3.93904e-06
2.14552e-07
3.9472e-06
1.77194e-07
3.94427e-06
-4.74677e-08
3.93503e-06
-2.37896e-07
3.924e-06
-1.78964e-07
3.91715e-06
-1.65504e-07
3.91863e-06
-5.33814e-08
3.91119e-06
-1.96933e-08
3.91098e-06
1.89041e-08
3.91242e-06
9.74844e-08
3.9112e-06
1.28696e-07
3.91385e-06
1.48258e-07
3.91687e-06
1.68762e-07
3.91779e-06
1.74509e-07
1.73009e-07
3.9204e-06
4.10178e-06
-5.05239e-07
4.12866e-06
3.15208e-07
4.10209e-06
-2.66686e-07
4.10717e-06
-1.65566e-07
4.1077e-06
2.32018e-07
4.12624e-06
1.96019e-07
4.13577e-06
1.67665e-07
4.13161e-06
-4.33155e-08
4.1231e-06
-2.29379e-07
4.11228e-06
-1.6815e-07
4.1046e-06
-1.5782e-07
4.10644e-06
-5.52262e-08
4.09908e-06
-1.23281e-08
4.0978e-06
2.01794e-08
4.09996e-06
9.53322e-08
4.0987e-06
1.29947e-07
4.10075e-06
1.46217e-07
4.10441e-06
1.65102e-07
4.1061e-06
1.72809e-07
1.70791e-07
4.10832e-06
4.29825e-06
-4.84184e-07
4.32558e-06
2.87872e-07
4.29907e-06
-2.4017e-07
4.30392e-06
-1.70421e-07
4.30514e-06
2.30803e-07
4.32233e-06
1.78825e-07
4.33324e-06
1.56757e-07
4.328e-06
-3.8077e-08
4.32e-06
-2.21385e-07
4.30963e-06
-1.57775e-07
4.30106e-06
-1.49256e-07
4.30305e-06
-5.72066e-08
4.296e-06
-5.28698e-09
4.2935e-06
2.26808e-08
4.29624e-06
9.2599e-08
4.29536e-06
1.30819e-07
4.29676e-06
1.44821e-07
4.30072e-06
1.61139e-07
4.30336e-06
1.70175e-07
1.68746e-07
4.3054e-06
4.50419e-06
-4.62598e-07
4.53182e-06
2.60238e-07
4.50559e-06
-2.13933e-07
4.51005e-06
-1.74887e-07
4.5121e-06
2.28752e-07
4.52778e-06
1.63152e-07
4.54002e-06
1.44514e-07
4.53387e-06
-3.19248e-08
4.52617e-06
-2.13687e-07
4.51646e-06
-1.48066e-07
4.50695e-06
-1.39745e-07
4.50885e-06
-5.91101e-08
4.50235e-06
1.21537e-09
4.49858e-06
2.64525e-08
4.50166e-06
8.95186e-08
4.50156e-06
1.3092e-07
4.50241e-06
1.43972e-07
4.50633e-06
1.57217e-07
4.50986e-06
1.66644e-07
1.66538e-07
4.51207e-06
4.72006e-06
-4.40543e-07
4.74783e-06
2.32472e-07
4.72208e-06
-1.88191e-07
4.72602e-06
-1.78825e-07
4.72905e-06
2.25726e-07
4.74305e-06
1.49151e-07
4.75653e-06
1.31031e-07
4.74967e-06
-2.50639e-08
4.74201e-06
-2.06026e-07
4.73321e-06
-1.39267e-07
4.72268e-06
-1.29211e-07
4.7243e-06
-6.07343e-08
4.71856e-06
6.9521e-09
4.71359e-06
3.14279e-08
4.71669e-06
8.64186e-08
4.71763e-06
1.2998e-07
4.71818e-06
1.43416e-07
4.72178e-06
1.53621e-07
4.72598e-06
1.62441e-07
1.63836e-07
4.72869e-06
4.94634e-06
-4.18085e-07
4.97407e-06
2.04741e-07
4.94901e-06
-1.63134e-07
4.95232e-06
-1.82134e-07
4.95644e-06
2.2161e-07
4.96864e-06
1.36949e-07
4.98324e-06
1.1643e-07
4.97589e-06
-1.77158e-08
4.96796e-06
-1.98092e-07
4.96034e-06
-1.31645e-07
4.94872e-06
-1.17591e-07
4.94978e-06
-6.1799e-08
4.94511e-06
1.16233e-08
4.93916e-06
3.73832e-08
4.94186e-06
8.37186e-08
4.94394e-06
1.27892e-07
4.94455e-06
1.4281e-07
4.94769e-06
1.50485e-07
4.95222e-06
1.57912e-07
1.60444e-07
4.95561e-06
5.18353e-06
-3.95294e-07
5.21107e-06
1.77199e-07
5.18685e-06
-1.38914e-07
5.18948e-06
-1.84763e-07
5.19476e-06
2.16326e-07
5.20507e-06
1.2664e-07
5.22063e-06
1.00866e-07
5.21304e-06
-1.01202e-08
5.2045e-06
-1.8955e-07
5.19828e-06
-1.25426e-07
5.18562e-06
-1.04936e-07
5.1857e-06
-6.1875e-08
5.18244e-06
1.48794e-08
5.17588e-06
4.39429e-08
5.17777e-06
8.18271e-08
5.18091e-06
1.24752e-07
5.18192e-06
1.41804e-07
5.18463e-06
1.47778e-07
5.18914e-06
1.53398e-07
1.56389e-07
5.1932e-06
5.43214e-06
-3.72241e-07
5.45935e-06
1.49981e-07
5.43607e-06
-1.15629e-07
5.43802e-06
-1.86714e-07
5.44452e-06
2.09823e-07
5.45286e-06
1.18299e-07
5.4692e-06
8.45289e-08
5.46165e-06
-2.56493e-09
5.45212e-06
-1.8002e-07
5.44747e-06
-1.20776e-07
5.43412e-06
-9.15927e-08
5.43252e-06
-6.02744e-08
5.43091e-06
1.64879e-08
5.42435e-06
5.05035e-08
5.42514e-06
8.10435e-08
5.42901e-06
1.20875e-07
5.4307e-06
1.40114e-07
5.43314e-06
1.45338e-07
5.43741e-06
1.49128e-07
1.51879e-07
5.44192e-06
5.69272e-06
-3.48999e-07
5.7195e-06
1.23201e-07
5.69719e-06
-9.33246e-08
5.69852e-06
-1.8804e-07
5.70627e-06
2.02071e-07
5.71259e-06
1.11982e-07
5.72945e-06
6.76634e-08
5.72228e-06
4.60319e-09
5.71134e-06
-1.69074e-07
5.70828e-06
-1.17719e-07
5.69487e-06
-7.81808e-08
5.69103e-06
-5.64319e-08
5.69092e-06
1.6589e-08
5.68506e-06
5.63693e-08
5.68467e-06
8.14309e-08
5.68882e-06
1.16725e-07
5.69133e-06
1.37609e-07
5.69373e-06
1.42936e-07
5.69768e-06
1.45174e-07
1.47194e-07
5.70237e-06
5.96584e-06
-3.25647e-07
5.99209e-06
9.69548e-08
5.97076e-06
-7.1993e-08
5.97152e-06
-1.88806e-07
5.98056e-06
1.93032e-07
5.98481e-06
1.0773e-07
6.00191e-06
5.0572e-08
5.99558e-06
1.09273e-08
5.98275e-06
-1.56241e-07
5.98112e-06
-1.16095e-07
5.96842e-06
-6.54764e-08
5.96214e-06
-5.01569e-08
5.96299e-06
1.57435e-08
5.95843e-06
6.09338e-08
5.95707e-06
8.27816e-08
5.96101e-06
1.12789e-07
5.96429e-06
1.34329e-07
5.96688e-06
1.40345e-07
5.97057e-06
1.41482e-07
1.4256e-07
5.97521e-06
6.25211e-06
-3.02267e-07
6.27774e-06
7.13273e-08
6.25734e-06
-5.16019e-08
6.25756e-06
-1.89023e-07
6.26801e-06
1.82587e-07
6.27018e-06
1.05551e-07
6.28713e-06
3.36265e-08
6.28216e-06
1.58981e-08
6.2671e-06
-1.41179e-07
6.26635e-06
-1.15347e-07
6.25527e-06
-5.44021e-08
6.24671e-06
-4.15961e-08
6.24773e-06
1.47317e-08
6.24486e-06
6.37987e-08
6.24296e-06
8.46818e-08
6.24632e-06
1.09434e-07
6.25017e-06
1.30472e-07
6.25311e-06
1.3741e-07
6.25668e-06
1.37913e-07
1.38099e-07
6.26114e-06
6.55215e-06
-2.78948e-07
6.57705e-06
4.6425e-08
6.55761e-06
-3.21539e-08
6.55713e-06
-1.8855e-07
6.56924e-06
1.70477e-07
6.5694e-06
1.05396e-07
6.58567e-06
1.73513e-08
6.5826e-06
1.89689e-08
6.56525e-06
-1.23824e-07
6.56442e-06
-1.14516e-07
6.5558e-06
-4.57885e-08
6.54562e-06
-3.14111e-08
6.54587e-06
1.44822e-08
6.54479e-06
6.48711e-08
6.5429e-06
8.6579e-08
6.54549e-06
1.06836e-07
6.54964e-06
1.26332e-07
6.55298e-06
1.34069e-07
6.55657e-06
1.34319e-07
1.33819e-07
6.56085e-06
6.86664e-06
-2.55798e-07
6.89066e-06
2.24099e-08
6.87232e-06
-1.38216e-08
6.8708e-06
-1.87023e-07
6.88491e-06
1.5636e-07
6.88316e-06
1.07146e-07
6.89808e-06
2.43616e-09
6.89743e-06
1.96125e-08
6.87813e-06
-1.04519e-07
6.87604e-06
-1.12431e-07
6.87041e-06
-4.01527e-08
6.85955e-06
-2.05497e-08
6.85835e-06
1.56747e-08
6.85875e-06
6.44744e-08
6.85741e-06
8.79211e-08
6.85929e-06
1.04954e-07
6.8634e-06
1.22225e-07
6.86711e-06
1.30352e-07
6.87083e-06
1.30604e-07
1.29639e-07
6.87501e-06
7.19628e-06
-2.32942e-07
7.21917e-06
-4.8101e-10
7.20231e-06
3.03722e-09
7.19919e-06
-1.83905e-07
7.21566e-06
1.39895e-07
7.2123e-06
1.10504e-07
7.22495e-06
-1.02138e-08
7.22715e-06
1.74099e-08
7.20666e-06
-8.40256e-08
7.20229e-06
-1.08059e-07
7.19953e-06
-3.73918e-08
7.18909e-06
-1.01106e-08
7.18619e-06
1.85738e-08
7.1874e-06
6.326e-08
7.187e-06
8.83253e-08
7.18843e-06
1.03521e-07
7.19224e-06
1.18418e-07
7.19621e-06
1.26381e-07
7.20009e-06
1.26727e-07
1.25445e-07
7.20428e-06
7.54181e-06
-2.10525e-07
7.56328e-06
-2.19527e-08
7.54836e-06
1.79577e-08
7.54304e-06
-1.78589e-07
7.56205e-06
1.20884e-07
7.55764e-06
1.14915e-07
7.56709e-06
-1.96601e-08
7.57224e-06
1.22645e-08
7.55172e-06
-6.35146e-08
7.54424e-06
-1.00575e-07
7.5437e-06
-3.68503e-08
7.53472e-06
-1.13375e-09
7.53029e-06
2.30113e-08
7.53158e-06
6.19683e-08
7.53222e-06
8.76826e-08
7.53358e-06
1.02162e-07
7.53698e-06
1.15019e-07
7.54101e-06
1.22352e-07
7.54502e-06
1.22713e-07
1.21142e-07
7.54933e-06
7.904e-06
-1.88713e-07
7.92374e-06
-4.16899e-08
7.91123e-06
3.04601e-08
7.90316e-06
-1.70519e-07
7.92458e-06
9.94671e-08
7.92002e-06
1.19472e-07
7.92551e-06
-2.51421e-08
7.93318e-06
4.59216e-09
7.91391e-06
-4.42507e-08
7.90315e-06
-8.98099e-08
7.90363e-06
-3.73283e-08
7.89686e-06
5.63088e-09
7.89144e-06
2.84377e-08
7.89223e-06
6.11716e-08
7.89373e-06
8.61842e-08
7.89536e-06
1.00537e-07
7.89844e-06
1.11938e-07
7.90233e-06
1.18459e-07
7.90639e-06
1.18656e-07
1.16699e-07
7.91083e-06
8.28366e-06
-1.67688e-07
8.30133e-06
-5.93624e-08
8.29172e-06
4.0073e-08
8.28042e-06
-1.5922e-07
8.30372e-06
7.61673e-08
8.30025e-06
1.22944e-07
8.30127e-06
-2.61662e-08
8.31052e-06
-4.66293e-09
8.29378e-06
-2.7504e-08
8.2801e-06
-7.6128e-08
8.28024e-06
-3.74689e-08
8.27598e-06
9.88382e-09
8.27035e-06
3.40708e-08
8.27034e-06
6.11833e-08
8.27234e-06
8.41843e-08
8.27441e-06
9.84651e-08
8.27738e-06
1.08971e-07
8.28106e-06
1.14777e-07
8.285e-06
1.14712e-07
1.12185e-07
8.28952e-06
8.68162e-06
-1.47642e-07
8.69693e-06
-7.46765e-08
8.69052e-06
4.64816e-08
8.67585e-06
-1.44548e-07
8.70005e-06
5.19697e-08
8.69908e-06
1.23915e-07
8.69553e-06
-2.26169e-08
8.70504e-06
-1.41775e-08
8.69184e-06
-1.42984e-08
8.67602e-06
-6.03151e-08
8.67471e-06
-3.61602e-08
8.67276e-06
1.18343e-08
8.66766e-06
3.91796e-08
8.66683e-06
6.20081e-08
8.66896e-06
8.20575e-08
8.67149e-06
9.59307e-08
8.67452e-06
1.05938e-07
8.67807e-06
1.11234e-07
8.68181e-06
1.10969e-07
1.07808e-07
8.68619e-06
9.09875e-06
-1.28769e-07
9.11141e-06
-8.73394e-08
9.10839e-06
4.94979e-08
9.09073e-06
-1.26882e-07
9.11439e-06
2.83077e-08
9.11711e-06
1.21193e-07
9.10957e-06
-1.50748e-08
9.11773e-06
-2.23373e-08
9.10844e-06
-5.01475e-09
9.09178e-06
-4.36518e-08
9.08842e-06
-3.2798e-08
9.08798e-06
1.22733e-08
9.08402e-06
4.31395e-08
9.08259e-06
6.34346e-08
9.08454e-06
8.01075e-08
9.08746e-06
9.30126e-08
9.09066e-06
1.02742e-07
9.09416e-06
1.0773e-07
9.09777e-06
1.07359e-07
1.03787e-07
9.10179e-06
9.53594e-06
-1.11249e-07
9.54574e-06
-9.71369e-08
9.54606e-06
4.91769e-08
9.52635e-06
-1.07174e-07
9.54776e-06
6.89404e-09
9.55477e-06
1.14183e-07
9.54453e-06
-4.83011e-09
9.5498e-06
-2.76117e-08
9.54419e-06
5.97882e-10
9.52805e-06
-2.75086e-08
9.52251e-06
-2.7261e-08
9.5227e-06
1.20863e-08
9.52018e-06
4.56606e-08
9.5185e-06
6.51121e-08
9.52006e-06
7.85443e-08
9.52322e-06
8.98535e-08
9.52666e-06
9.93056e-08
9.53016e-06
1.04229e-07
9.53375e-06
1.03765e-07
1.00116e-07
9.53742e-06
9.99413e-06
-9.52428e-08
1.00009e-05
-1.03912e-07
1.00043e-05
4.57684e-08
9.98385e-06
-8.67113e-08
1.00014e-05
-1.06193e-08
1.00125e-05
1.03036e-07
1.00014e-05
6.27662e-09
1.00029e-05
-2.9077e-08
9.9999e-06
3.56982e-09
9.98536e-06
-1.29759e-08
9.97811e-06
-2.00071e-08
9.97815e-06
1.20424e-08
9.97696e-06
4.6856e-08
9.97542e-06
6.6647e-08
9.97654e-06
7.74332e-08
9.97972e-06
8.66662e-08
9.98348e-06
9.55481e-08
9.98701e-06
1.00702e-07
9.99058e-06
1.0019e-07
9.65888e-08
9.99411e-06
1.04743e-05
-8.08851e-08
1.04779e-05
-1.07557e-07
1.04841e-05
3.96176e-08
1.0464e-05
-6.66741e-08
1.04766e-05
-2.31393e-08
1.04909e-05
8.87368e-08
1.0481e-05
1.61727e-08
1.04786e-05
-2.6718e-08
1.04768e-05
5.37979e-09
1.04644e-05
-6.08137e-10
1.04562e-05
-1.17625e-08
1.04556e-05
1.26585e-08
1.04554e-05
4.70283e-08
1.04543e-05
6.77669e-08
1.0455e-05
7.6715e-08
1.0458e-05
8.36702e-08
1.04621e-05
9.14795e-08
1.04658e-05
9.69972e-08
1.04692e-05
9.67123e-08
9.30512e-08
1.04728e-05
1.09774e-05
-6.82669e-08
1.09779e-05
-1.08084e-07
1.09863e-05
3.12252e-08
1.09677e-05
-4.80794e-08
1.09749e-05
-3.0332e-08
1.09909e-05
7.27993e-08
1.09837e-05
2.33453e-08
1.09784e-05
-2.13969e-08
1.09764e-05
7.29209e-09
1.09662e-05
9.65385e-09
1.09575e-05
-3.11361e-09
1.09562e-05
1.40398e-08
1.09566e-05
4.65512e-08
1.09561e-05
6.83371e-08
1.09565e-05
7.62797e-08
1.09592e-05
8.10165e-08
1.09633e-05
8.73042e-08
1.09674e-05
9.28962e-08
1.09708e-05
9.33386e-08
8.95335e-08
1.09743e-05
1.15045e-05
-5.74157e-08
1.15021e-05
-1.05674e-07
1.1512e-05
2.13508e-08
1.14958e-05
-3.18852e-08
1.14981e-05
-3.26435e-08
1.15138e-05
5.70505e-08
1.151e-05
2.71859e-08
1.15033e-05
-1.46956e-08
1.15005e-05
1.01424e-08
1.14917e-05
1.84299e-08
1.14831e-05
5.41253e-09
1.1481e-05
1.6172e-08
1.14819e-05
4.56853e-08
1.14819e-05
6.83317e-08
1.14822e-05
7.59813e-08
1.14845e-05
7.87506e-08
1.14884e-05
8.33357e-08
1.14929e-05
8.83809e-08
1.14964e-05
8.98253e-08
8.62386e-08
1.14997e-05
1.20567e-05
-4.82916e-08
1.20517e-05
-1.0063e-07
1.20621e-05
1.08596e-08
1.20491e-05
-1.88604e-08
1.20475e-05
-3.10427e-08
1.20614e-05
4.32017e-08
1.20607e-05
2.78737e-08
1.20542e-05
-8.25123e-09
1.20502e-05
1.41651e-08
1.20423e-05
2.63525e-08
1.2034e-05
1.37072e-08
1.20313e-05
1.88691e-08
1.20323e-05
4.46647e-08
1.20329e-05
6.77434e-08
1.20332e-05
7.57052e-08
1.20351e-05
7.68583e-08
1.20387e-05
7.97346e-08
1.20433e-05
8.37446e-08
1.20473e-05
8.58343e-08
8.31767e-08
1.20504e-05
1.26351e-05
-4.07799e-08
1.26279e-05
-9.3426e-08
1.26381e-05
6.44367e-10
1.26287e-05
-9.44622e-09
1.26243e-05
-2.66639e-08
1.26352e-05
3.22938e-08
1.26367e-05
2.63345e-08
1.26317e-05
-3.16062e-09
1.26271e-05
1.86887e-08
1.26195e-05
3.39744e-08
1.26113e-05
2.19578e-08
1.26081e-05
2.19864e-08
1.26092e-05
4.36238e-08
1.26104e-05
6.65488e-08
1.26107e-05
7.53744e-08
1.26122e-05
7.53326e-08
1.26155e-05
7.64977e-08
1.26198e-05
7.93759e-08
1.26244e-05
8.13099e-08
7.99903e-08
1.26276e-05
1.32408e-05
-3.4694e-08
1.32322e-05
-8.47796e-08
1.32412e-05
-8.33922e-09
1.32355e-05
-3.75315e-09
1.32295e-05
-2.06786e-08
1.32371e-05
2.46581e-08
1.32395e-05
2.39448e-08
1.32363e-05
6.29963e-11
1.32324e-05
2.25949e-08
1.32248e-05
4.15979e-08
1.32164e-05
3.03482e-08
1.32127e-05
2.56621e-08
1.32137e-05
4.26297e-08
1.32155e-05
6.47308e-08
1.32161e-05
7.48315e-08
1.32172e-05
7.41796e-08
1.32201e-05
7.35966e-08
1.32241e-05
7.53888e-08
1.32288e-05
7.66679e-08
7.62314e-08
1.32325e-05
1.38753e-05
-2.97859e-08
1.38659e-05
-7.54725e-08
1.38729e-05
-1.53042e-08
1.38706e-05
-1.40285e-09
1.38642e-05
-1.43415e-08
1.38686e-05
2.02472e-08
1.38707e-05
2.19051e-08
1.38691e-05
1.61142e-09
1.38667e-05
2.49795e-08
1.38596e-05
4.87823e-08
1.38508e-05
3.90655e-08
1.38464e-05
3.008e-08
1.38472e-05
4.18625e-08
1.38496e-05
6.23283e-08
1.38506e-05
7.38431e-08
1.38514e-05
7.33587e-08
1.38539e-05
7.10773e-08
1.38577e-05
7.16561e-08
1.3862e-05
7.23415e-08
7.18986e-08
1.38663e-05
1.45397e-05
-2.57798e-08
1.45304e-05
-6.62021e-08
1.45349e-05
-1.97842e-08
1.45351e-05
-1.59851e-09
1.45295e-05
-8.81067e-09
1.45312e-05
1.86106e-08
1.45321e-05
2.09667e-08
1.45313e-05
2.39665e-09
1.4531e-05
2.53044e-08
1.45251e-05
5.4635e-08
1.45161e-05
4.81239e-08
1.45108e-05
3.53371e-08
1.45111e-05
4.16003e-08
1.45139e-05
5.95496e-08
1.45156e-05
7.21278e-08
1.45162e-05
7.27004e-08
1.45183e-05
6.90591e-08
1.45218e-05
6.81159e-08
1.45257e-05
6.84072e-08
6.74352e-08
1.45302e-05
1.52355e-05
-2.23912e-08
1.52268e-05
-5.75422e-08
1.52288e-05
-2.17152e-08
1.52305e-05
-3.29461e-09
1.52264e-05
-4.79232e-09
1.52261e-05
1.89192e-08
1.52256e-05
2.15007e-08
1.52245e-05
3.49078e-09
1.52262e-05
2.36149e-08
1.52226e-05
5.82253e-08
1.52136e-05
5.71006e-08
1.52075e-05
4.14949e-08
1.5207e-05
4.20953e-08
1.52098e-05
5.67245e-08
1.52123e-05
6.95818e-08
1.52132e-05
7.18014e-08
1.52146e-05
6.76619e-08
1.52179e-05
6.48571e-08
1.52216e-05
6.47136e-08
6.32557e-08
1.52258e-05
1.59643e-05
-1.93885e-08
1.59566e-05
-4.98289e-08
1.59564e-05
-2.14668e-08
1.59584e-05
-5.286e-09
1.59561e-05
-2.55584e-09
1.59549e-05
2.01038e-08
1.59528e-05
2.35959e-08
1.59506e-05
5.72773e-09
1.59535e-05
2.07006e-08
1.59528e-05
5.89161e-08
1.59449e-05
6.5027e-08
1.59379e-05
4.84896e-08
1.59364e-05
4.35708e-08
1.59391e-05
5.40513e-08
1.59422e-05
6.64794e-08
1.59438e-05
7.01685e-08
1.59448e-05
6.66695e-08
1.59475e-05
6.22077e-08
1.59511e-05
6.1092e-08
5.95289e-08
1.59548e-05
1.67278e-05
-1.66092e-08
1.67212e-05
-4.31574e-08
1.67193e-05
-1.96595e-08
1.67206e-05
-6.51232e-09
1.672e-05
-1.95679e-09
1.67188e-05
2.13138e-08
1.67155e-05
2.68492e-08
1.67119e-05
9.38312e-09
1.67146e-05
1.79436e-08
1.67169e-05
5.66127e-08
1.67111e-05
7.07996e-08
1.67037e-05
5.59365e-08
1.67011e-05
4.61175e-08
1.67034e-05
5.18245e-08
1.67068e-05
6.30634e-08
1.67092e-05
6.77368e-08
1.67104e-05
6.55135e-08
1.67123e-05
6.03116e-08
1.67157e-05
5.76774e-08
5.61358e-08
1.67191e-05
1.75277e-05
-1.39589e-08
1.7522e-05
-3.74894e-08
1.75192e-05
-1.68517e-08
1.75193e-05
-6.53488e-09
1.75195e-05
-2.1719e-09
1.7519e-05
2.18285e-08
1.75153e-05
3.05131e-08
1.75102e-05
1.44822e-08
1.75115e-05
1.66312e-08
1.75162e-05
5.19592e-08
1.75134e-05
7.3511e-08
1.75064e-05
6.30264e-08
1.75028e-05
4.96479e-08
1.75042e-05
5.04371e-08
1.75079e-05
5.9417e-08
1.75108e-05
6.47976e-08
1.75126e-05
6.37509e-08
1.7514e-05
5.89032e-08
1.75168e-05
5.48062e-08
5.29225e-08
1.75201e-05
1.83658e-05
-1.14002e-08
1.83609e-05
-3.26499e-08
1.83577e-05
-1.35622e-08
1.83564e-05
-5.23766e-09
1.83566e-05
-2.41119e-09
1.8357e-05
2.146e-08
1.83536e-05
3.38391e-08
1.83476e-05
2.05643e-08
1.83469e-05
1.734e-08
1.83524e-05
4.63919e-08
1.8353e-05
7.28862e-08
1.83474e-05
6.86393e-08
1.83431e-05
5.40109e-08
1.83435e-05
5.00503e-08
1.83469e-05
5.59583e-08
1.83503e-05
6.14549e-08
1.83526e-05
6.1434e-08
1.8354e-05
5.74517e-08
1.83562e-05
5.25952e-08
4.98665e-08
1.83593e-05
1.92439e-05
-8.95734e-09
1.92396e-05
-2.83127e-08
1.92364e-05
-1.03154e-08