/*--------------------------------*- C++ -*----------------------------------*\
| =========                 |                                                 |
| \\      /  F ield         | OpenFOAM: The Open Source CFD Toolbox           |
|  \\    /   O peration     | Version:  2106                                  |
|   \\  /    A nd           | Website:  www.openfoam.com                      |
|    \\/     M anipulation  |                                                 |
\*---------------------------------------------------------------------------*/
FoamFile
{
    version     2.0;
    format      ascii;
    arch        "LSB;label=32;scalar=64";
    class       volVectorField;
    location    "0.685";
    object      U;
}
// * * * * * * * * * * * * * * * * * * * * * * * * * * * * * * * * * * * * * //

dimensions      [0 1 -1 0 0 0 0];

internalField   nonuniform List<vector> 
9600
(
(0.858652 -0.00795458 0)
(1.11955 0.00834273 0)
(0.867922 -0.00586318 0)
(1.17131 0.00108756 0)
(0.920343 0.0042662 0)
(1.16725 0.0062537 0)
(0.869503 0.00196678 0)
(1.15512 -0.00182998 0)
(0.864814 -0.0107855 0)
(1.14777 -0.00353878 0)
(0.898015 -0.00524122 0)
(1.15173 0.0027772 0)
(0.912523 -0.0043007 0)
(1.16297 0.00267622 0)
(0.90938 0.000631179 0)
(1.15525 0.00609425 0)
(0.896849 0.00414229 0)
(1.14812 0.00498791 0)
(0.885914 0.00378095 0)
(1.14791 0.00224161 0)
(0.86967 -0.00788464 0)
(1.11436 0.00843697 0)
(0.885006 -0.00640414 0)
(1.16311 0.000784089 0)
(0.935808 0.00405018 0)
(1.15481 0.00691776 0)
(0.897369 0.00188709 0)
(1.13331 -0.00155198 0)
(0.896694 -0.0109013 0)
(1.12503 -0.00380338 0)
(0.928839 -0.00552522 0)
(1.12645 0.00269366 0)
(0.951858 -0.00467995 0)
(1.12873 0.0027914 0)
(0.961414 0.000739741 0)
(1.10447 0.00634043 0)
(0.970629 0.00452008 0)
(1.07045 0.00482708 0)
(0.990173 0.00471748 0)
(1.03098 0.00174135 0)
(0.887762 -0.007834 0)
(1.10269 0.00840228 0)
(0.910625 -0.00691881 0)
(1.14349 0.000482794 0)
(0.963858 0.00399255 0)
(1.13218 0.00749166 0)
(0.93971 0.00199557 0)
(1.10029 -0.00135381 0)
(0.938094 -0.0109489 0)
(1.08775 -0.00412478 0)
(0.969567 -0.00564751 0)
(1.08879 0.00236422 0)
(0.9971 -0.00472801 0)
(1.0848 0.00263693 0)
(1.01049 0.0013356 0)
(1.05944 0.0061193 0)
(1.01595 0.00537857 0)
(1.03323 0.00437638 0)
(1.0191 0.00569352 0)
(1.01531 0.00237539 0)
(0.910211 -0.007818 0)
(1.08543 0.00825751 0)
(0.937465 -0.0072866 0)
(1.11407 0.000148468 0)
(0.994032 0.00401389 0)
(1.10491 0.00780292 0)
(0.979932 0.00228503 0)
(1.06652 -0.0012238 0)
(0.971577 -0.0108211 0)
(1.05091 -0.0045005 0)
(0.998745 -0.00570919 0)
(1.05739 0.00190064 0)
(1.02296 -0.00461257 0)
(1.05467 0.00237112 0)
(1.03128 0.00182828 0)
(1.0398 0.00600594 0)
(1.02767 0.00593926 0)
(1.02573 0.00436224 0)
(1.02047 0.00629223 0)
(1.01572 0.00323802 0)
(0.93379 -0.00781996 0)
(1.0653 0.00807159 0)
(0.960309 -0.0075028 0)
(1.08092 -0.000284077 0)
(1.01634 0.00400476 0)
(1.07847 0.00797459 0)
(1.0072 0.0026928 0)
(1.04017 -0.00104646 0)
(0.990211 -0.0106033 0)
(1.02471 -0.00488077 0)
(1.01072 -0.00584093 0)
(1.03804 0.00144912 0)
(1.02969 -0.00450845 0)
(1.03862 0.00213203 0)
(1.0339 0.00215481 0)
(1.03266 0.00601484 0)
(1.02825 0.00634364 0)
(1.02376 0.00450951 0)
(1.01927 0.00683091 0)
(1.0139 0.003952 0)
(0.955268 -0.00782481 0)
(1.04555 0.00787492 0)
(0.976839 -0.00759365 0)
(1.05082 -0.000761938 0)
(1.02629 0.00394797 0)
(1.05607 0.00808562 0)
(1.01949 0.00312208 0)
(1.02354 -0.000797558 0)
(0.997358 -0.0103677 0)
(1.00995 -0.00520682 0)
(1.01144 -0.00603842 0)
(1.02651 0.00104252 0)
(1.02648 -0.00442566 0)
(1.02878 0.0019258 0)
(1.02956 0.00238308 0)
(1.02775 0.00598839 0)
(1.02575 0.00669485 0)
(1.02119 0.00470753 0)
(1.01704 0.00730013 0)
(1.0113 0.00473929 0)
(0.972412 -0.00782421 0)
(1.02866 0.00769061 0)
(0.987369 -0.00759003 0)
(1.02791 -0.00119407 0)
(1.02529 0.00384826 0)
(1.03826 0.00815482 0)
(1.02083 0.00349915 0)
(1.01446 -0.000525733 0)
(0.99923 -0.0101304 0)
(1.0028 -0.00546437 0)
(1.00792 -0.00623971 0)
(1.01831 0.000670942 0)
(1.01986 -0.00433725 0)
(1.02063 0.00171462 0)
(1.02281 0.00253192 0)
(1.022 0.00589741 0)
(1.02114 0.00698628 0)
(1.01719 0.00493267 0)
(1.01328 0.00770026 0)
(1.008 0.00559465 0)
(0.984489 -0.00781156 0)
(1.01578 0.00753533 0)
(0.993569 -0.00752627 0)
(1.01287 -0.00152533 0)
(1.01799 0.0037247 0)
(1.02442 0.00818174 0)
(1.01677 0.00378391 0)
(1.00985 -0.000295676 0)
(0.999833 -0.00989297 0)
(0.999681 -0.00565792 0)
(1.00402 -0.00639263 0)
(1.01168 0.000334452 0)
(1.01295 -0.0042267 0)
(1.01314 0.00148872 0)
(1.0154 0.00264022 0)
(1.01534 0.00576319 0)
(1.01504 0.00721028 0)
(1.01198 0.00518293 0)
(1.00852 0.00802391 0)
(1.00413 0.00645478 0)
(0.99204 -0.00778099 0)
(1.00691 0.00740585 0)
(0.997142 -0.00743433 0)
(1.00408 -0.00173968 0)
(1.00913 0.00360774 0)
(1.01399 0.00816021 0)
(1.01151 0.00396468 0)
(1.00752 -0.000147669 0)
(1.00049 -0.00965783 0)
(0.998474 -0.00579226 0)
(1.00104 -0.00647158 0)
(1.00637 4.08633e-05 0)
(1.00706 -0.00408631 0)
(1.00657 0.00127188 0)
(1.00837 0.00274115 0)
(1.00861 0.00561403 0)
(1.00859 0.00737146 0)
(1.00646 0.0054541 0)
(1.0037 0.00824823 0)
(1.00035 0.00726287 0)
(0.996259 -0.00773002 0)
(1.00133 0.00728693 0)
(0.999209 -0.00733261 0)
(0.999348 -0.001848 0)
(1.0017 0.00351869 0)
(1.00665 0.00808722 0)
(1.00723 0.00405189 0)
(1.00636 -8.76796e-05 0)
(1.00124 -0.00942418 0)
(0.99809 -0.00587556 0)
(0.99908 -0.00647333 0)
(1.00238 -0.00020634 0)
(1.00257 -0.00391199 0)
(1.0013 0.00108567 0)
(1.00247 0.00284693 0)
(1.00275 0.00547434 0)
(1.00289 0.00746974 0)
(1.00164 0.0057313 0)
(0.999652 0.00836679 0)
(0.997316 0.00797914 0)
(0.998388 -0.00766005 0)
(0.998147 0.00716551 0)
(1.00034 -0.00722604 0)
(0.996902 -0.00187745 0)
(0.99672 0.00346109 0)
(1.00205 0.00796756 0)
(1.00456 0.00406847 0)
(1.00583 -9.76777e-05 0)
(1.00185 -0.0091876 0)
(0.997984 -0.00591924 0)
(0.997871 -0.006408 0)
(0.999591 -0.000413566 0)
(0.999405 -0.00370186 0)
(0.997457 0.000940773 0)
(0.998046 0.00295786 0)
(0.998297 0.00535558 0)
(0.998571 0.00750256 0)
(0.998088 0.00600237 0)
(0.996813 0.00839887 0)
(0.995305 0.00857884 0)
(0.999384 -0.00757455 0)
(0.996517 0.00703524 0)
(1.00084 -0.0071125 0)
(0.99561 -0.00185908 0)
(0.993945 0.00342689 0)
(0.999606 0.00780979 0)
(1.0033 0.0040401 0)
(1.00566 -0.000151664 0)
(1.00224 -0.00894237 0)
(0.997915 -0.00593405 0)
(0.997104 -0.00629239 0)
(0.997728 -0.000588159 0)
(0.997299 -0.00346442 0)
(0.994915 0.000836023 0)
(0.995093 0.00306518 0)
(0.995359 0.00526067 0)
(0.995772 0.00747325 0)
(0.99588 0.00625982 0)
(0.995192 0.0083763 0)
(0.994281 0.00905185 0)
(0.999843 -0.00747742 0)
(0.995788 0.00689474 0)
(1.00092 -0.00698759 0)
(0.994868 -0.0018187 0)
(0.992662 0.00340488 0)
(0.998612 0.00762123 0)
(1.00296 0.00398838 0)
(1.0057 -0.000227678 0)
(1.00245 -0.00868323 0)
(0.997814 -0.0059275 0)
(0.996577 -0.00614286 0)
(0.996511 -0.000737741 0)
(0.995957 -0.00321577 0)
(0.993403 0.000763125 0)
(0.99337 0.00315587 0)
(0.993715 0.00518916 0)
(0.99426 0.00739248 0)
(0.994784 0.00649409 0)
(0.994539 0.00833432 0)
(0.994015 0.00940193 0)
(1.00007 -0.00737175 0)
(0.995524 0.00674494 0)
(1.00076 -0.00684751 0)
(0.994401 -0.00177393 0)
(0.992204 0.0033861 0)
(0.998434 0.00740667 0)
(1.00309 0.00392767 0)
(1.00583 -0.000311923 0)
(1.00253 -0.00840729 0)
(0.997695 -0.00590315 0)
(0.996193 -0.00597184 0)
(0.995716 -0.000870353 0)
(0.995125 -0.00296877 0)
(0.992611 0.000717611 0)
(0.99253 0.00322182 0)
(0.992998 0.0051361 0)
(0.993655 0.00727828 0)
(0.994446 0.00669385 0)
(0.994517 0.00830118 0)
(0.994228 0.00964299 0)
(1.00021 -0.00725932 0)
(0.99547 0.00658686 0)
(1.00051 -0.00669021 0)
(0.994105 -0.00173455 0)
(0.992128 0.00336568 0)
(0.998617 0.00716918 0)
(1.00336 0.003866 0)
(1.00596 -0.000396522 0)
(1.00255 -0.00811567 0)
(0.997589 -0.00586183 0)
(0.995924 -0.00578861 0)
(0.9952 -0.000986598 0)
(0.994617 -0.00273565 0)
(0.992271 0.00069268 0)
(0.992238 0.00326111 0)
(0.992842 0.00509215 0)
(0.993584 0.00715191 0)
(0.994533 0.00685164 0)
(0.994826 0.00828843 0)
(0.994679 0.00979589 0)
(1.00031 -0.00714084 0)
(0.995495 0.00642056 0)
(1.00026 -0.00651509 0)
(0.993943 -0.00170518 0)
(0.992204 0.00334285 0)
(0.99889 0.0069108 0)
(1.00362 0.00380709 0)
(1.00603 -0.000479247 0)
(1.00254 -0.00780963 0)
(0.997517 -0.00580576 0)
(0.995759 -0.00560081 0)
(0.994875 -0.00108537 0)
(0.994314 -0.00252097 0)
(0.992184 0.000682373 0)
(0.992236 0.00327434 0)
(0.992964 0.00504843 0)
(0.99376 0.00703068 0)
(0.994796 0.00697037 0)
(0.995252 0.00829143 0)
(0.995196 0.00988399 0)
(1.00038 -0.00701633 0)
(0.995542 0.00624531 0)
(1.00004 -0.0063226 0)
(0.993895 -0.00168726 0)
(0.99233 0.00331924 0)
(0.999129 0.00663383 0)
(1.00377 0.00375194 0)
(1.00601 -0.000560123 0)
(1.0025 -0.00749247 0)
(0.997487 -0.00573494 0)
(0.99569 -0.00541319 0)
(0.994692 -0.00116732 0)
(0.994145 -0.00232845 0)
(0.992229 0.000683321 0)
(0.992363 0.00326606 0)
(0.993185 0.00499639 0)
(0.994008 0.00692481 0)
(0.995089 0.0070616 0)
(0.995673 0.00829783 0)
(0.995684 0.00992645 0)
(1.00042 -0.00688543 0)
(0.995589 0.00606006 0)
(0.999871 -0.00611361 0)
(0.993937 -0.00168102 0)
(0.992472 0.00329783 0)
(0.999297 0.00634045 0)
(1.00382 0.00370016 0)
(1.00592 -0.000638417 0)
(1.00245 -0.00717046 0)
(0.997493 -0.00564484 0)
(0.995699 -0.00523252 0)
(0.994613 -0.00122839 0)
(0.994068 -0.00215632 0)
(0.992345 0.000692752 0)
(0.992534 0.00324874 0)
(0.993421 0.00492791 0)
(0.994247 0.0068356 0)
(0.995346 0.00713595 0)
(0.996037 0.00829514 0)
(0.996105 0.00993459 0)
(1.00046 -0.0067478 0)
(0.995633 0.00586387 0)
(0.99974 -0.00588894 0)
(0.994046 -0.00168636 0)
(0.992622 0.00328094 0)
(0.9994 0.00603327 0)
(1.00379 0.00365044 0)
(1.00576 -0.000713063 0)
(1.00237 -0.00684944 0)
(0.997525 -0.00553469 0)
(0.995769 -0.00506381 0)
(0.994612 -0.00126622 0)
(0.994058 -0.00199901 0)
(0.992502 0.000704986 0)
(0.992718 0.00323604 0)
(0.993642 0.00484192 0)
(0.994454 0.00675499 0)
(0.99555 0.0072007 0)
(0.996336 0.00827415 0)
(0.996459 0.00990956 0)
(1.00048 -0.00660308 0)
(0.995672 0.0056561 0)
(0.999636 -0.00564962 0)
(0.994199 -0.00170187 0)
(0.992779 0.00326821 0)
(0.999458 0.00571615 0)
(1.0037 0.00360148 0)
(1.00555 -0.000782797 0)
(1.00228 -0.00653425 0)
(0.997572 -0.00540398 0)
(0.995879 -0.00490845 0)
(0.994664 -0.00128817 0)
(0.994097 -0.00185322 0)
(0.992689 0.000711447 0)
(0.992906 0.00323486 0)
(0.993848 0.0047465 0)
(0.994637 0.00667214 0)
(0.995711 0.0072636 0)
(0.996584 0.00823399 0)
(0.996761 0.00984509 0)
(1.0005 -0.00645097 0)
(0.99571 0.0054361 0)
(0.999548 -0.00539583 0)
(0.994382 -0.00172819 0)
(0.992942 0.0032613 0)
(0.999491 0.00539047 0)
(1.00358 0.00354953 0)
(1.00531 -0.00084517 0)
(1.00217 -0.00623025 0)
(0.997624 -0.00525071 0)
(0.996014 -0.00476606 0)
(0.994753 -0.00129809 0)
(0.994168 -0.00170819 0)
(0.9929 0.000708561 0)
(0.9931 0.00324699 0)
(0.994045 0.00465382 0)
(0.994812 0.00657777 0)
(0.995848 0.00733036 0)
(0.996795 0.00818514 0)
(0.997032 0.00973906 0)
(1.00052 -0.00629141 0)
(0.995748 0.00520409 0)
(0.999468 -0.00512898 0)
(0.994581 -0.00176385 0)
(0.993111 0.0032607 0)
(0.999511 0.00505772 0)
(1.00344 0.0034932 0)
(1.00506 -0.000896951 0)
(1.00206 -0.00594285 0)
(0.997677 -0.00507468 0)
(0.996163 -0.00463494 0)
(0.994866 -0.00129221 0)
(0.994259 -0.00156239 0)
(0.993129 0.000692301 0)
(0.993301 0.00326875 0)
(0.994239 0.00457493 0)
(0.99499 0.00646292 0)
(0.995975 0.00739948 0)
(0.996983 0.00814478 0)
(0.997287 0.00959832 0)
(1.00053 -0.00612425 0)
(0.995789 0.00496035 0)
(0.999391 -0.00485024 0)
(0.994791 -0.00180866 0)
(0.993284 0.00326444 0)
(0.999526 0.00472333 0)
(1.00329 0.00342976 0)
(1.0048 -0.000934555 0)
(1.00195 -0.0056744 0)
(0.997728 -0.00487756 0)
(0.996318 -0.00451189 0)
(0.994994 -0.00128301 0)
(0.994361 -0.00140987 0)
(0.993371 0.000663051 0)
(0.993512 0.0032914 0)
(0.994431 0.00451982 0)
(0.995182 0.00632491 0)
(0.996105 0.00745557 0)
(0.997153 0.00812519 0)
(0.997532 0.00943319 0)
(1.00055 -0.00594958 0)
(0.995834 0.00470508 0)
(0.999317 -0.00455997 0)
(0.995009 -0.00186214 0)
(0.993459 0.00327058 0)
(0.999539 0.00439108 0)
(1.00314 0.00335522 0)
(1.00453 -0.000955084 0)
(1.00184 -0.00542637 0)
(0.997777 -0.0046628 0)
(0.996474 -0.00438882 0)
(0.995135 -0.00128268 0)
(0.994468 -0.0012396 0)
(0.993621 0.000625974 0)
(0.993733 0.00330752 0)
(0.994622 0.00449509 0)
(0.995387 0.00617372 0)
(0.996249 0.00747636 0)
(0.997311 0.0081267 0)
(0.99777 0.00925411 0)
(1.00056 -0.00576749 0)
(0.995883 0.00443882 0)
(0.999242 -0.00426013 0)
(0.995233 -0.00192095 0)
(0.993635 0.00327711 0)
(0.999551 0.00406305 0)
(1.00299 0.00326651 0)
(1.00426 -0.000957077 0)
(1.00173 -0.00519847 0)
(0.997824 -0.00443531 0)
(0.996628 -0.00426108 0)
(0.995288 -0.00128961 0)
(0.994578 -0.00105326 0)
(0.993876 0.000586029 0)
(0.993967 0.00331083 0)
(0.994811 0.00450007 0)
(0.995602 0.00602407 0)
(0.99641 0.00744908 0)
(0.997461 0.00814249 0)
(0.997997 0.00907603 0)
(1.00057 -0.00557797 0)
(0.995939 0.00416261 0)
(0.999168 -0.00395261 0)
(0.995462 -0.0019845 0)
(0.993813 0.00328198 0)
(0.999561 0.00374168 0)
(1.00285 0.00316004 0)
(1.00399 -0.000936214 0)
(1.00163 -0.00498999 0)
(0.997869 -0.00419985 0)
(0.996778 -0.00412369 0)
(0.995452 -0.00130555 0)
(0.99469 -0.000852838 0)
(0.994131 0.000553957 0)
(0.994215 0.00329543 0)
(0.994998 0.00453008 0)
(0.995823 0.00588563 0)
(0.99659 0.00737169 0)
(0.997605 0.00815924 0)
(0.998208 0.00891753 0)
(1.00058 -0.00538181 0)
(0.996 0.00387829 0)
(0.999092 -0.00363985 0)
(0.995695 -0.00205031 0)
(0.993993 0.00328268 0)
(0.999569 0.00343244 0)
(1.0027 0.00303407 0)
(1.00372 -0.000893298 0)
(1.00153 -0.00480021 0)
(0.997915 -0.00395928 0)
(0.996923 -0.0039714 0)
(0.995627 -0.00133633 0)
(0.994806 -0.000643894 0)
(0.994385 0.0005411 0)
(0.994479 0.0032568 0)
(0.995186 0.00458332 0)
(0.996044 0.00576657 0)
(0.996791 0.00724485 0)
(0.997751 0.00815324 0)
(0.9984 0.00878861 0)
(1.00059 -0.00517888 0)
(0.996069 0.00358612 0)
(0.999017 -0.00332396 0)
(0.995931 -0.00211595 0)
(0.994175 0.00327806 0)
(0.999574 0.00314092 0)
(1.00257 0.00288514 0)
(1.00345 -0.000828436 0)
(1.00143 -0.00462608 0)
(0.997962 -0.0037223 0)
(0.99706 -0.00380031 0)
(0.995814 -0.00138152 0)
(0.994929 -0.000434907 0)
(0.994634 0.000556314 0)
(0.99476 0.0031868 0)
(0.995377 0.00465114 0)
(0.996258 0.00567931 0)
(0.997007 0.00707761 0)
(0.997906 0.00810255 0)
(0.998571 0.00869052 0)
(1.0006 -0.00496978 0)
(0.996145 0.00328831 0)
(0.998942 -0.00300844 0)
(0.996168 -0.00217899 0)
(0.99436 0.00326617 0)
(0.999576 0.00286712 0)
(1.00244 0.0027142 0)
(1.00317 -0.000742627 0)
(1.00133 -0.00446276 0)
(0.998012 -0.00349545 0)
(0.997188 -0.00360787 0)
(0.996012 -0.00143263 0)
(0.99506 -0.000235712 0)
(0.994875 0.000610138 0)
(0.995057 0.00308337 0)
(0.995577 0.00470909 0)
(0.99646 0.00563015 0)
(0.997234 0.00689007 0)
(0.998076 0.00799403 0)
(0.998726 0.00861066 0)
(1.0006 -0.00475504 0)
(0.996229 0.00298672 0)
(0.998867 -0.00269561 0)
(0.996405 -0.00223895 0)
(0.994547 0.00324284 0)
(0.999573 0.00261475 0)
(1.00232 0.00252111 0)
(1.0029 -0.000637156 0)
(1.00123 -0.00430897 0)
(0.998065 -0.00327988 0)
(0.997307 -0.00339367 0)
(0.996218 -0.00148673 0)
(0.995205 -4.14058e-05 0)
(0.995106 0.000708898 0)
(0.995367 0.00296193 0)
(0.995792 0.00473429 0)
(0.99665 0.00561582 0)
(0.99746 0.00670744 0)
(0.998264 0.00782703 0)
(0.998872 0.00852111 0)
(1.00061 -0.00453542 0)
(0.99632 0.00268353 0)
(0.998794 -0.00238815 0)
(0.996643 -0.00229339 0)
(0.994736 0.00320546 0)
(0.999566 0.00238823 0)
(1.0022 0.00230552 0)
(1.00262 -0.000515372 0)
(1.00113 -0.00416138 0)
(0.998123 -0.00307844 0)
(0.997416 -0.00315585 0)
(0.996432 -0.00153843 0)
(0.995366 0.00013997 0)
(0.995324 0.000850532 0)
(0.995683 0.0028419 0)
(0.996027 0.00471272 0)
(0.996833 0.00562189 0)
(0.997678 0.00655188 0)
(0.998469 0.00762041 0)
(0.999021 0.00839881 0)
(1.00061 -0.0043116 0)
(0.99642 0.00238078 0)
(0.998723 -0.00208861 0)
(0.996879 -0.00233899 0)
(0.994927 0.00315543 0)
(0.999553 0.00218571 0)
(1.0021 0.00207013 0)
(1.00235 -0.000382885 0)
(1.00102 -0.00401417 0)
(0.998188 -0.00289907 0)
(0.997513 -0.00289261 0)
(0.996651 -0.00157974 0)
(0.995548 0.000288057 0)
(0.995529 0.00103288 0)
(0.995997 0.00273766 0)
(0.996284 0.00463972 0)
(0.997013 0.00562407 0)
(0.997882 0.00642893 0)
(0.998683 0.00739855 0)
(0.999181 0.00823184 0)
(1.00061 -0.00408408 0)
(0.996526 0.00207971 0)
(0.998654 -0.00179712 0)
(0.997113 -0.00237719 0)
(0.995119 0.00309308 0)
(0.999531 0.00201036 0)
(1.002 0.00181605 0)
(1.00208 -0.000243654 0)
(1.00091 -0.00385776 0)
(0.998261 -0.0027506 0)
(0.997601 -0.00260052 0)
(0.99687 -0.0015985 0)
(0.995753 0.000396512 0)
(0.995725 0.00124876 0)
(0.996301 0.00266465 0)
(0.99656 0.00451965 0)
(0.9972 0.00560114 0)
(0.998072 0.00633077 0)
(0.998897 0.00718037 0)
(0.999357 0.00802081 0)
(1.00061 -0.00385363 0)
(0.996641 0.00178281 0)
(0.998587 -0.00151638 0)
(0.997344 -0.00240659 0)
(0.995314 0.00301341 0)
(0.9995 0.00186858 0)
(1.00191 0.00154762 0)
(1.00182 -0.000102145 0)
(1.00079 -0.00368091 0)
(0.998344 -0.00263765 0)
(0.997682 -0.00228682 0)
(0.997083 -0.00158062 0)
(0.995983 0.000447827 0)
(0.995916 0.00146953 0)
(0.996586 0.0026347 0)
(0.99685 0.0043681 0)
(0.9974 0.0055429 0)
(0.99825 0.0062471 0)
(0.999104 0.00698105 0)
(0.999545 0.0077797 0)
(1.00061 -0.00362128 0)
(0.996761 0.00149014 0)
(0.998523 -0.00124444 0)
(0.997572 -0.00242978 0)
(0.995513 0.00291645 0)
(0.999458 0.00175623 0)
(1.00183 0.00126818 0)
(1.00156 2.98697e-05 0)
(1.00066 -0.00347979 0)
(0.998438 -0.00256148 0)
(0.99776 -0.00196692 0)
(0.997283 -0.00150676 0)
(0.996235 0.000448441 0)
(0.996111 0.00166618 0)
(0.996848 0.00265127 0)
(0.997146 0.00420834 0)
(0.997617 0.00544412 0)
(0.998422 0.00616138 0)
(0.999297 0.00680827 0)
(0.999739 0.00753166 0)
(1.00061 -0.00338758 0)
(0.996889 0.00120286 0)
(0.998462 -0.000985209 0)
(0.997794 -0.00244392 0)
(0.995716 0.00279973 0)
(0.999403 0.00167331 0)
(1.00176 0.000980771 0)
(1.00132 0.000152675 0)
(1.00052 -0.00324247 0)
(0.998542 -0.00252323 0)
(0.997842 -0.00165731 0)
(0.997466 -0.00137541 0)
(0.996504 0.000420186 0)
(0.996317 0.00181993 0)
(0.997087 0.00270945 0)
(0.997438 0.00406452 0)
(0.997848 0.00531097 0)
(0.998595 0.00605634 0)
(0.999477 0.00665148 0)
(0.999929 0.00729654 0)
(1.0006 -0.00315261 0)
(0.997024 0.000921071 0)
(0.998403 -0.000738553 0)
(0.99801 -0.00245075 0)
(0.995924 0.00266303 0)
(0.999338 0.00162481 0)
(1.0017 0.000693267 0)
(1.0011 0.000258936 0)
(1.00037 -0.00295794 0)
(0.998652 -0.0025117 0)
(0.997934 -0.00137945 0)
(0.997627 -0.00117893 0)
(0.996783 0.000386033 0)
(0.99654 0.0019169 0)
(0.997309 0.00278638 0)
(0.997718 0.00394763 0)
(0.998091 0.00516009 0)
(0.998772 0.00593139 0)
(0.999648 0.00649455 0)
(1.00011 0.0070801 0)
(1.00059 -0.00291815 0)
(0.997165 0.00064449 0)
(0.998348 -0.000498357 0)
(0.998216 -0.00245445 0)
(0.99614 0.00250686 0)
(0.99926 0.00161043 0)
(1.00164 0.000414424 0)
(1.0009 0.000330512 0)
(1.0002 -0.00262375 0)
(0.998764 -0.00250544 0)
(0.998045 -0.00115206 0)
(0.99777 -0.000925199 0)
(0.997058 0.000369155 0)
(0.996781 0.00195217 0)
(0.99752 0.00285705 0)
(0.997982 0.00385477 0)
(0.998339 0.00499829 0)
(0.998955 0.00578998 0)
(0.999814 0.00632899 0)
(1.00028 0.00687144 0)
(1.00058 -0.00268432 0)
(0.997313 0.000375225 0)
(0.998297 -0.000269937 0)
(0.998412 -0.00244434 0)
(0.996364 0.0023203 0)
(0.999172 0.00163239 0)
(1.00158 0.000153124 0)
(1.00072 0.000365939 0)
(1.00001 -0.00224282 0)
(0.998868 -0.00248231 0)
(0.998179 -0.000990909 0)
(0.9979 -0.000650674 0)
(0.99732 0.000385341 0)
(0.997038 0.00193644 0)
(0.997729 0.00290824 0)
(0.998228 0.00378747 0)
(0.998587 0.00483309 0)
(0.999142 0.0056343 0)
(0.999976 0.00615791 0)
(1.00045 0.00666375 0)
(1.00057 -0.00245296 0)
(0.997468 0.000116689 0)
(0.998252 -5.73504e-05 0)
(0.998595 -0.00241476 0)
(0.996599 0.00210241 0)
(0.999074 0.00167864 0)
(1.00151 -8.63079e-05 0)
(1.00058 0.000350759 0)
(0.999815 -0.00183488 0)
(0.998956 -0.00241008 0)
(0.998337 -0.000902753 0)
(0.998023 -0.000375445 0)
(0.997562 0.000456972 0)
(0.997306 0.00189672 0)
(0.997942 0.00292819 0)
(0.998458 0.00374181 0)
(0.998829 0.00467389 0)
(0.999335 0.00546192 0)
(1.00013 0.00598135 0)
(1.00061 0.00645685 0)
(1.00055 -0.00222448 0)
(0.997629 -0.000129776 0)
(0.998213 0.00013567 0)
(0.998762 -0.00236138 0)
(0.996844 0.0018473 0)
(0.99897 0.00174283 0)
(1.00144 -0.000282199 0)
(1.00048 0.000278465 0)
(0.999617 -0.0014218 0)
(0.999018 -0.00227479 0)
(0.998515 -0.000876563 0)
(0.998154 -0.000123826 0)
(0.997781 0.000585506 0)
(0.997573 0.00186075 0)
(0.998162 0.00291213 0)
(0.998674 0.0037054 0)
(0.99906 0.00453516 0)
(0.999528 0.00527739 0)
(1.00029 0.00579348 0)
(1.00077 0.00624733 0)
(1.00053 -0.00200168 0)
(0.997796 -0.000356314 0)
(0.998182 0.000299315 0)
(0.998911 -0.00227679 0)
(0.9971 0.0015513 0)
(0.998865 0.00181977 0)
(1.00135 -0.000407783 0)
(1.00041 0.000158077 0)
(0.999429 -0.00102637 0)
(0.999048 -0.00206503 0)
(0.998707 -0.000885335 0)
(0.998302 7.86309e-05 0)
(0.99798 0.000740996 0)
(0.99783 0.00184288 0)
(0.99839 0.00286593 0)
(0.998886 0.00365775 0)
(0.999276 0.00442196 0)
(0.999717 0.00509702 0)
(1.00045 0.00559245 0)
(1.00092 0.00602801 0)
(1.00051 -0.0017863 0)
(0.997968 -0.000562205 0)
(0.998162 0.000432982 0)
(0.999039 -0.00215009 0)
(0.997368 0.0012235 0)
(0.998766 0.00188434 0)
(1.00125 -0.000454582 0)
(1.00037 -5.83774e-06 0)
(0.99926 -0.000672997 0)
(0.999044 -0.00178352 0)
(0.998901 -0.000896689 0)
(0.998473 0.000208073 0)
(0.998164 0.000896751 0)
(0.998069 0.00184361 0)
(0.998618 0.00280316 0)
(0.999097 0.00358718 0)
(0.999481 0.00431901 0)
(0.999893 0.00493557 0)
(1.0006 0.00538597 0)
(1.00108 0.00578997 0)
(1.00049 -0.00157914 0)
(0.998143 -0.000744947 0)
(0.998155 0.000531861 0)
(0.999143 -0.00197762 0)
(0.997643 0.000878243 0)
(0.998682 0.00191892 0)
(1.00112 -0.000417164 0)
(1.00036 -0.000190684 0)
(0.999122 -0.000383585 0)
(0.999007 -0.00145136 0)
(0.999083 -0.000882756 0)
(0.998666 0.00027143 0)
(0.998345 0.00103915 0)
(0.998291 0.0018598 0)
(0.998843 0.00273508 0)
(0.999311 0.0035015 0)
(0.999681 0.0042128 0)
(1.00006 0.00479816 0)
(1.00074 0.00519736 0)
(1.00123 0.00554138 0)
(1.00047 -0.00138312 0)
(0.998319 -0.0008988 0)
(0.998163 0.000587229 0)
(0.999224 -0.00175991 0)
(0.99792 0.0005371 0)
(0.998621 0.00190372 0)
(1.00097 -0.000308761 0)
(1.00037 -0.000358899 0)
(0.999024 -0.000174264 0)
(0.998946 -0.00109204 0)
(0.999241 -0.000824696 0)
(0.99888 0.00029394 0)
(0.99853 0.00115634 0)
(0.998493 0.00189225 0)
(0.99906 0.0026655 0)
(0.999525 0.00340398 0)
(0.999882 0.00409438 0)
(1.00021 0.00466376 0)
(1.00086 0.00503552 0)
(1.00137 0.00530364 0)
(1.00044 -0.00119963 0)
(0.998495 -0.00102204 0)
(0.998191 0.000598947 0)
(0.999281 -0.00150471 0)
(0.998194 0.000218376 0)
(0.998591 0.00182036 0)
(1.00081 -0.000153286 0)
(1.00038 -0.000484383 0)
(0.998969 -3.10926e-05 0)
(0.998872 -0.000738682 0)
(0.999368 -0.000711348 0)
(0.999106 0.000293379 0)
(0.998727 0.00123778 0)
(0.99868 0.00193731 0)
(0.999263 0.00259913 0)
(0.999739 0.00329231 0)
(1.00008 0.00396805 0)
(1.00037 0.00452087 0)
(1.00096 0.00488878 0)
(1.00148 0.00510732 0)
(1.00042 -0.00103078 0)
(0.998667 -0.00111182 0)
(0.998239 0.000570813 0)
(0.999319 -0.00123783 0)
(0.998455 -5.18033e-05 0)
(0.998595 0.00166694 0)
(1.00063 2.35672e-05 0)
(1.00039 -0.000538699 0)
(0.998956 5.11445e-05 0)
(0.998795 -0.000411995 0)
(0.999461 -0.000552539 0)
(0.999333 0.000296186 0)
(0.998939 0.00128749 0)
(0.998855 0.00198741 0)
(0.999449 0.00254514 0)
(0.999951 0.00316559 0)
(1.00029 0.00383028 0)
(1.00053 0.00437562 0)
(1.00105 0.00473367 0)
(1.00155 0.00495145 0)
(1.00039 -0.000877663 0)
(0.998833 -0.00116901 0)
(0.998308 0.000510685 0)
(0.99934 -0.000973495 0)
(0.998697 -0.000259836 0)
(0.998633 0.00145941 0)
(1.00047 0.000200055 0)
(1.0004 -0.000514249 0)
(0.998978 8.54752e-05 0)
(0.99873 -0.000128118 0)
(0.999524 -0.000366346 0)
(0.999555 0.000314057 0)
(0.999167 0.00131249 0)
(0.999026 0.00203408 0)
(0.999612 0.00251403 0)
(1.00015 0.00303743 0)
(1.0005 0.00367128 0)
(1.00069 0.00422946 0)
(1.00116 0.00456666 0)
(1.00161 0.00478953 0)
(1.00036 -0.000741833 0)
(0.998991 -0.00118992 0)
(0.998397 0.00041923 0)
(0.999351 -0.000721333 0)
(0.998912 -0.00039582 0)
(0.998704 0.00121855 0)
(1.00032 0.000346576 0)
(1.00039 -0.000429596 0)
(0.999027 0.000114987 0)
(0.998683 0.000104316 0)
(0.999561 -0.000168683 0)
(0.999764 0.000341951 0)
(0.99941 0.00131166 0)
(0.999199 0.00206509 0)
(0.999754 0.00249851 0)
(1.00034 0.00292358 0)
(1.00072 0.00349599 0)
(1.00086 0.00407288 0)
(1.00125 0.00441537 0)
(1.00167 0.00460691 0)
(1.00034 -0.000624994 0)
(0.999137 -0.00117566 0)
(0.998504 0.000307436 0)
(0.999359 -0.000498113 0)
(0.999098 -0.000455718 0)
(0.998799 0.000972062 0)
(1.0002 0.000433685 0)
(1.00037 -0.000315113 0)
(0.999092 0.000167753 0)
(0.998656 0.000299786 0)
(0.999579 2.9145e-05 0)
(0.999955 0.000385676 0)
(0.999665 0.00129579 0)
(0.999382 0.0020837 0)
(0.99988 0.00249204 0)
(1.0005 0.00282769 0)
(1.00094 0.00331296 0)
(1.00105 0.00388213 0)
(1.00135 0.00427557 0)
(1.00172 0.00443224 0)
(1.00031 -0.000524561 0)
(0.99927 -0.00113251 0)
(0.998625 0.000184389 0)
(0.999369 -0.000310994 0)
(0.999253 -0.000454013 0)
(0.998907 0.000744738 0)
(1.00011 0.000464255 0)
(1.00036 -0.000194837 0)
(0.99917 0.000247413 0)
(0.998645 0.000479998 0)
(0.999583 0.000218891 0)
(1.00013 0.00043959 0)
(0.999929 0.00126737 0)
(0.999579 0.00208663 0)
(0.999994 0.00250015 0)
(1.00063 0.00275733 0)
(1.00114 0.0031453 0)
(1.00127 0.00365918 0)
(1.00147 0.00410843 0)
(1.00176 0.00428572 0)
(1.00029 -0.000442121 0)
(0.999387 -0.00106158 0)
(0.998756 6.10155e-05 0)
(0.999386 -0.000167942 0)
(0.99938 -0.000406677 0)
(0.99902 0.000556278 0)
(1.00004 0.000451346 0)
(1.00036 -9.01843e-05 0)
(0.999261 0.000339478 0)
(0.998647 0.000660001 0)
(0.999569 0.000411696 0)
(1.00027 0.000504242 0)
(1.0002 0.00122826 0)
(0.999799 0.00205924 0)
(1.00011 0.00250948 0)
(1.00073 0.00271161 0)
(1.00131 0.00301024 0)
(1.00148 0.00343853 0)
(1.00163 0.00389225 0)
(1.0018 0.00414892 0)
(1.00026 -0.000376146 0)
(0.999488 -0.000969743 0)
(0.998891 -5.30879e-05 0)
(0.999413 -7.42544e-05 0)
(0.999483 -0.000329296 0)
(0.999128 0.00042179 0)
(1.00001 0.000412109 0)
(1.00037 -2.04995e-05 0)
(0.99937 0.00042712 0)
(0.998665 0.000834346 0)
(0.99954 0.000613126 0)
(1.00039 0.000589356 0)
(1.00046 0.00118841 0)
(1.00004 0.00200867 0)
(1.00023 0.00250423 0)
(1.00082 0.00268165 0)
(1.00145 0.0029012 0)
(1.00168 0.00324928 0)
(1.00182 0.00364678 0)
(1.00187 0.00397561 0)
(1.00024 -0.000322012 0)
(0.999573 -0.000869267 0)
(0.999023 -0.000149594 0)
(0.999453 -2.54316e-05 0)
(0.999569 -0.000240432 0)
(0.999227 0.000338211 0)
(0.999985 0.000372334 0)
(1.0004 1.91709e-05 0)
(0.999501 0.000493192 0)
(0.998702 0.00100146 0)
(0.999497 0.000820453 0)
(1.00047 0.000692133 0)
(1.00071 0.00114935 0)
(1.0003 0.00193816 0)
(1.00037 0.00248307 0)
(1.00089 0.00266099 0)
(1.00156 0.0028086 0)
(1.00185 0.00309344 0)
(1.00201 0.00341778 0)
(1.00199 0.00375044 0)
(1.00022 -0.000278808 0)
(0.999643 -0.000765238 0)
(0.999149 -0.000218947 0)
(0.999503 -1.42385e-05 0)
(0.999643 -0.000155443 0)
(0.999314 0.000297497 0)
(0.99997 0.000348078 0)
(1.00044 3.60091e-05 0)
(0.999659 0.000510647 0)
(0.998766 0.00115283 0)
(0.999443 0.00104447 0)
(1.00051 0.000819133 0)
(1.00093 0.0011262 0)
(1.00058 0.00184314 0)
(1.00053 0.00244181 0)
(1.00094 0.00264924 0)
(1.00164 0.00273269 0)
(1.00199 0.00295201 0)
(1.00218 0.00322646 0)
(1.00214 0.00350112 0)
(1.0002 -0.000242935 0)
(0.9997 -0.000666083 0)
(0.999264 -0.000254713 0)
(0.999563 -3.12264e-05 0)
(0.999713 -8.73766e-05 0)
(0.99939 0.000291839 0)
(0.999956 0.00034954 0)
(1.00047 4.85765e-05 0)
(0.999844 0.000477167 0)
(0.998872 0.0012516 0)
(0.999387 0.00127043 0)
(1.0005 0.000975991 0)
(1.00112 0.00112935 0)
(1.00086 0.00173294 0)
(1.00072 0.00236062 0)
(1.001 0.00263454 0)
(1.0017 0.00268292 0)
(1.00211 0.00281848 0)
(1.00233 0.00306394 0)
(1.0023 0.00326967 0)
(1.00019 -0.000211177 0)
(0.999746 -0.000578158 0)
(0.999366 -0.00025923 0)
(0.999626 -6.07191e-05 0)
(0.999784 -4.49833e-05 0)
(0.999461 0.000307919 0)
(0.999938 0.000376827 0)
(1.0005 7.65278e-05 0)
(1.00004 0.00042154 0)
(0.999028 0.00128614 0)
(0.999346 0.00147556 0)
(1.00046 0.00116417 0)
(1.00125 0.00116509 0)
(1.00113 0.00163619 0)
(1.00095 0.00224059 0)
(1.00109 0.00258797 0)
(1.00172 0.00265548 0)
(1.0022 0.00270341 0)
(1.00245 0.00290932 0)
(1.00244 0.00307713 0)
(1.00017 -0.000182144 0)
(0.999786 -0.000501373 0)
(0.999453 -0.000243956 0)
(0.999688 -8.28073e-05 0)
(0.999859 -2.87936e-05 0)
(0.99953 0.00032814 0)
(0.999916 0.000427602 0)
(1.00051 0.0001306 0)
(1.00024 0.000360384 0)
(0.999233 0.00124965 0)
(0.999337 0.00163846 0)
(1.00038 0.00136557 0)
(1.00132 0.00123336 0)
(1.00136 0.00156463 0)
(1.00119 0.00210833 0)
(1.00121 0.00249605 0)
(1.00173 0.00262232 0)
(1.00225 0.00261843 0)
(1.00256 0.00275175 0)
(1.00255 0.00291235 0)
(1.00015 -0.000155036 0)
(0.999819 -0.000435047 0)
(0.99953 -0.000215122 0)
(0.999744 -9.11267e-05 0)
(0.999936 -2.92407e-05 0)
(0.999607 0.000339063 0)
(0.999897 0.000492441 0)
(1.0005 0.000216837 0)
(1.00043 0.000318325 0)
(0.999483 0.00114926 0)
(0.999379 0.00173457 0)
(1.00028 0.00156195 0)
(1.00134 0.00133443 0)
(1.00156 0.00151603 0)
(1.00144 0.00198346 0)
(1.00136 0.00237555 0)
(1.00176 0.0025576 0)
(1.00225 0.00255903 0)
(1.00264 0.00260559 0)
(1.00264 0.00275358 0)
(1.00014 -0.000128593 0)
(0.999848 -0.000379969 0)
(0.999596 -0.000177653 0)
(0.999792 -8.12349e-05 0)
(1.00001 -3.44489e-05 0)
(0.999693 0.000332721 0)
(0.999887 0.000551273 0)
(1.00046 0.000326906 0)
(1.00058 0.000317258 0)
(0.999759 0.00102408 0)
(0.999487 0.00174097 0)
(1.00019 0.00173298 0)
(1.00129 0.00146726 0)
(1.00169 0.00149631 0)
(1.00166 0.00186737 0)
(1.00153 0.00224766 0)
(1.00182 0.00246011 0)
(1.00224 0.00250109 0)
(1.00267 0.00248882 0)
(1.00271 0.00259152 0)
(1.00013 -0.000102591 0)
(0.999875 -0.000332322 0)
(0.999656 -0.000139268 0)
(0.999831 -5.31588e-05 0)
(1.00008 -3.55903e-05 0)
(0.999788 0.000316572 0)
(0.999895 0.000598021 0)
(1.00042 0.000446257 0)
(1.00068 0.000360779 0)
(1.00003 0.000909646 0)
(0.999657 0.00166118 0)