/*--------------------------------*- C++ -*----------------------------------*\
| =========                 |                                                 |
| \\      /  F ield         | OpenFOAM: The Open Source CFD Toolbox           |
|  \\    /   O peration     | Version:  2106                                  |
|   \\  /    A nd           | Website:  www.openfoam.com                      |
|    \\/     M anipulation  |                                                 |
\*---------------------------------------------------------------------------*/
FoamFile
{
    version     2.0;
    format      ascii;
    arch        "LSB;label=32;scalar=64";
    class       surfaceScalarField;
    location    "0.83";
    object      phi;
}
// * * * * * * * * * * * * * * * * * * * * * * * * * * * * * * * * * * * * * //

dimensions      [0 3 -1 0 0 0 0];

oriented        oriented;

internalField   nonuniform List<scalar> 
19000
(
1.18665e-06
1.38396e-07
1.16402e-06
2.27029e-07
1.14529e-06
-1.81767e-07
1.16333e-06
-5.67895e-07
1.18468e-06
2.08326e-07
1.12384e-06
-3.27386e-07
1.15212e-06
2.27245e-07
1.15685e-06
2.23454e-07
1.15673e-06
-2.42764e-07
1.17311e-06
1.00245e-07
1.17558e-06
-2.17532e-08
1.17477e-06
1.19553e-07
1.1784e-06
-7.0653e-08
1.1722e-06
6.43498e-09
1.1815e-06
2.209e-07
1.16461e-06
-1.90002e-08
1.17794e-06
3.16091e-07
1.14786e-06
5.67159e-09
1.15632e-06
1.97702e-07
5.09058e-08
1.11443e-06
1.2407e-06
1.21952e-07
1.22143e-06
2.46299e-07
1.20049e-06
-1.60823e-07
1.21687e-06
-5.84271e-07
1.23688e-06
1.88315e-07
1.17935e-06
-2.69863e-07
1.20328e-06
2.03318e-07
1.21594e-06
2.10791e-07
1.21398e-06
-2.40803e-07
1.2332e-06
8.10279e-08
1.2323e-06
-2.08514e-08
1.2372e-06
1.14648e-07
1.23454e-06
-6.7988e-08
1.23577e-06
5.20253e-09
1.23331e-06
2.23361e-07
1.22966e-06
-1.53466e-08
1.22359e-06
3.22159e-07
1.21926e-06
9.99557e-09
1.19765e-06
2.19313e-07
4.79076e-08
1.20065e-06
1.29561e-06
1.09128e-07
1.28167e-06
2.60234e-07
1.25886e-06
-1.38014e-07
1.27321e-06
-5.9862e-07
1.29015e-06
1.71378e-07
1.24238e-06
-2.22094e-07
1.25741e-06
1.88287e-07
1.27985e-06
1.8835e-07
1.27352e-06
-2.3447e-07
1.29471e-06
5.98349e-08
1.29014e-06
-1.6282e-08
1.30045e-06
1.04348e-07
1.29202e-06
-5.95654e-08
1.2977e-06
-4.73292e-10
1.29254e-06
2.28521e-07
1.29194e-06
-1.47432e-08
1.28866e-06
3.25432e-07
1.28434e-06
1.43229e-08
1.27417e-06
2.29476e-07
5.95971e-08
1.26248e-06
1.35267e-06
1.00558e-07
1.34409e-06
2.68814e-07
1.32086e-06
-1.14781e-07
1.33308e-06
-6.10844e-07
1.34589e-06
1.58573e-07
1.31163e-06
-1.87835e-07
1.31845e-06
1.81465e-07
1.34571e-06
1.6109e-07
1.33711e-06
-2.25868e-07
1.355e-06
4.19473e-08
1.35136e-06
-1.26442e-08
1.36136e-06
9.43464e-08
1.35315e-06
-5.13553e-08
1.35735e-06
-4.66992e-09
1.35596e-06
2.29909e-07
1.35381e-06
-1.25973e-08
1.3558e-06
3.23446e-07
1.34889e-06
2.12368e-08
1.34538e-06
2.32983e-07
7.74934e-08
1.32748e-06
1.4132e-06
9.57074e-08
1.40835e-06
2.73671e-07
1.387e-06
-9.34361e-08
1.39671e-06
-6.20551e-07
1.40529e-06
1.49993e-07
1.38404e-06
-1.66582e-07
1.38745e-06
1.78051e-07
1.41277e-06
1.35769e-07
1.40501e-06
-2.18113e-07
1.41711e-06
2.98558e-08
1.41622e-06
-1.17613e-08
1.42401e-06
8.65578e-08
1.41782e-06
-4.51606e-08
1.42022e-06
-7.06972e-09
1.42157e-06
2.2856e-07
1.4187e-06
-9.72894e-09
1.42288e-06
3.19262e-07
1.41448e-06
2.96361e-08
1.41382e-06
2.33645e-07
9.75764e-08
1.39374e-06
1.47821e-06
9.31731e-08
1.47489e-06
2.76992e-07
1.45752e-06
-7.60633e-08
1.46417e-06
-6.27205e-07
1.46903e-06
1.45131e-07
1.45775e-06
-1.55298e-07
1.46249e-06
1.73307e-07
1.482e-06
1.16267e-07
1.47599e-06
-2.12106e-07
1.48343e-06
2.2411e-08
1.48393e-06
-1.22557e-08
1.49005e-06
8.04344e-08
1.48518e-06
-4.02883e-08
1.48729e-06
-9.18151e-09
1.49002e-06
2.25832e-07
1.48691e-06
-6.6196e-09
1.49228e-06
3.13896e-07
1.48226e-06
3.96557e-08
1.48355e-06
2.32348e-07
1.18721e-07
1.46241e-06
1.54797e-06
9.14233e-08
1.54478e-06
2.80183e-07
1.53218e-06
-6.34729e-08
1.53548e-06
-6.30504e-07
1.53727e-06
1.43346e-07
1.53251e-06
-1.50542e-07
1.54055e-06
1.65272e-07
1.554e-06
1.02813e-07
1.54879e-06
-2.06892e-07
1.55365e-06
1.75516e-08
1.55385e-06
-1.24593e-08
1.55884e-06
7.54432e-08
1.55451e-06
-3.59612e-08
1.55721e-06
-1.18725e-08
1.56091e-06
2.22129e-07
1.55749e-06
-3.19709e-09
1.56385e-06
3.07534e-07
1.55208e-06
5.14264e-08
1.55498e-06
2.29444e-07
1.40095e-07
1.5336e-06
1.62204e-06
8.95158e-08
1.61886e-06
2.83355e-07
1.61048e-06
-5.50849e-08
1.61051e-06
-6.30541e-07
1.60994e-06
1.43922e-07
1.6089e-06
-1.49509e-07
1.61963e-06
1.54546e-07
1.62869e-06
9.37583e-08
1.62318e-06
-2.01387e-07
1.62668e-06
1.40542e-08
1.62591e-06
-1.16904e-08
1.62999e-06
7.13678e-08
1.62571e-06
-3.16872e-08
1.62894e-06
-1.51012e-08
1.63341e-06
2.1766e-07
1.62946e-06
7.49426e-10
1.63685e-06
3.00145e-07
1.62357e-06
6.47072e-08
1.62797e-06
2.25043e-07
1.60778e-07
1.60729e-06
1.6998e-06
8.72891e-08
1.69739e-06
2.85765e-07
1.6919e-06
-4.95969e-08
1.68904e-06
-6.27683e-07
1.68702e-06
1.45942e-07
1.68773e-06
-1.50212e-07
1.69947e-06
1.42805e-07
1.70594e-06
8.72895e-08
1.69971e-06
-1.95162e-07
1.70227e-06
1.14943e-08
1.70056e-06
-9.97741e-09
1.70393e-06
6.8001e-08
1.6994e-06
-2.71662e-08
1.70257e-06
-1.82699e-08
1.70757e-06
2.12666e-07
1.70285e-06
5.46752e-09
1.71139e-06
2.91603e-07
1.69711e-06
7.89849e-08
1.70296e-06
2.19195e-07
1.79841e-07
1.6839e-06
1.78096e-06
8.50482e-08
1.78015e-06
2.86582e-07
1.77626e-06
-4.57142e-08
1.77096e-06
-6.2238e-07
1.76853e-06
1.48373e-07
1.76968e-06
-1.51361e-07
1.78086e-06
1.3162e-07
1.786e-06
8.21514e-08
1.77913e-06
-1.88293e-07
1.78091e-06
9.71814e-09
1.77856e-06
-7.62483e-09
1.78145e-06
6.51064e-08
1.77657e-06
-2.2285e-08
1.77898e-06
-2.06823e-08
1.7843e-06
2.07346e-07
1.77862e-06
1.11536e-08
1.78839e-06
2.81832e-07
1.7737e-06
9.36712e-08
1.78077e-06
2.12121e-07
1.96501e-07
1.76411e-06
1.86565e-06
8.31512e-08
1.86687e-06
2.8536e-07
1.86366e-06
-4.2502e-08
1.85634e-06
-6.15064e-07
1.8544e-06
1.50316e-07
1.85526e-06
-1.52224e-07
1.86492e-06
1.21962e-07
1.86939e-06
7.76813e-08
1.86212e-06
-1.81029e-07
1.86325e-06
8.58877e-09
1.86063e-06
-5.00251e-09
1.86324e-06
6.24988e-08
1.85805e-06
-1.7102e-08
1.85923e-06
-2.18597e-08
1.86481e-06
2.01768e-07
1.85808e-06
1.78799e-08
1.86902e-06
2.70897e-07
1.85444e-06
1.08249e-07
1.86225e-06
2.04318e-07
2.10194e-07
1.84855e-06
1.9542e-06
8.17943e-08
1.95748e-06
2.82076e-07
1.95439e-06
-3.94124e-08
1.94543e-06
-6.06104e-07
1.94454e-06
1.51208e-07
1.94478e-06
-1.52469e-07
1.95258e-06
1.14167e-07
1.95664e-06
7.36237e-08
1.94923e-06
-1.73625e-07
1.94985e-06
7.97465e-09
1.9473e-06
-2.45016e-09
1.94971e-06
6.00845e-08
1.94439e-06
-1.17844e-08
1.94415e-06
-2.16168e-08
1.95002e-06
1.95894e-07
1.94232e-06
2.55776e-08
1.9542e-06
2.5902e-07
1.94014e-06
1.22311e-07
1.94798e-06
1.9648e-07
2.206e-07
1.93757e-06
2.04698e-06
8.10035e-08
2.05208e-06
2.76971e-07
2.04886e-06
-3.61895e-08
2.03855e-06
-5.95791e-07
2.03891e-06
1.50846e-07
2.03846e-06
-1.5202e-07
2.04452e-06
1.08104e-07
2.0482e-06
6.99437e-08
2.04088e-06
-1.66299e-07
2.04106e-06
7.79202e-09
2.03884e-06
-2.28603e-10
2.04107e-06
5.78562e-08
2.03582e-06
-6.53528e-09
2.03419e-06
-1.99824e-08
2.04041e-06
1.89667e-07
2.03193e-06
3.40584e-08
2.04437e-06
2.46579e-07
2.03117e-06
1.35519e-07
2.03833e-06
1.8932e-07
2.27639e-07
2.03129e-06
2.1443e-06
8.07075e-08
2.15088e-06
2.70386e-07
2.14746e-06
-3.27693e-08
2.13601e-06
-5.84335e-07
2.13755e-06
1.49297e-07
2.13646e-06
-1.50922e-07
2.14118e-06
1.03379e-07
2.14443e-06
6.66958e-08
2.13737e-06
-1.59238e-07
2.13714e-06
8.02236e-09
2.13541e-06
1.49707e-09
2.13741e-06
5.5859e-08
2.13241e-06
-1.53091e-09
2.12953e-06
-1.71041e-08
2.13611e-06
1.83086e-07
2.1271e-06
4.30615e-08
2.13964e-06
2.34048e-07
2.12759e-06
1.47562e-07
2.13352e-06
1.83388e-07
2.31461e-07
2.1297e-06
2.24639e-06
8.08026e-08
2.25411e-06
2.62667e-07
2.25054e-06
-2.91943e-08
2.23809e-06
-5.7189e-07
2.24062e-06
1.46769e-07
2.23895e-06
-1.49248e-07
2.24282e-06
9.9502e-08
2.24557e-06
6.39523e-08
2.23893e-06
-1.52596e-07
2.23825e-06
8.70173e-09
2.23709e-06
2.649e-09
2.2388e-06
5.41532e-08
2.23416e-06
3.11084e-09
2.23025e-06
-1.31945e-08
2.23709e-06
1.76248e-07
2.22786e-06
5.22896e-08
2.23997e-06
2.21932e-07
2.22937e-06
1.58172e-07
2.23384e-06
1.78915e-07
2.32468e-07
2.23283e-06
2.35349e-06
8.11869e-08
2.36205e-06
2.54112e-07
2.35839e-06
-2.55422e-08
2.34508e-06
-5.58578e-07
2.34836e-06
1.43494e-07
2.34615e-06
-1.47045e-07
2.34966e-06
9.59971e-08
2.35183e-06
6.17759e-08
2.34573e-06
-1.46488e-07
2.34453e-06
9.89352e-09
2.34396e-06
3.21884e-09
2.34533e-06
5.2783e-08
2.3411e-06
7.34801e-09
2.33642e-06
-8.52003e-09
2.34333e-06
1.69346e-07
2.3342e-06
6.14196e-08
2.34543e-06
2.10694e-07
2.33646e-06
1.67146e-07
2.33951e-06
1.75864e-07
2.31208e-07
2.34077e-06
2.46581e-06
8.17755e-08
2.47496e-06
2.44956e-07
2.4713e-06
-2.18811e-08
2.45722e-06
-5.44499e-07
2.46106e-06
1.39659e-07
2.45833e-06
-1.44318e-07
2.46186e-06
9.24686e-08
2.46342e-06
6.02159e-08
2.45793e-06
-1.40994e-07
2.45616e-06
1.16576e-08
2.45613e-06
3.25164e-09
2.45716e-06
5.17503e-08
2.45329e-06
1.12229e-08
2.44816e-06
-3.38927e-09
2.45488e-06
1.62625e-07
2.44615e-06
7.01493e-08
2.45622e-06
2.00625e-07
2.44889e-06
1.74474e-07
2.45073e-06
1.74026e-07
2.28246e-07
2.45369e-06
2.58356e-06
8.25057e-08
2.59317e-06
2.35352e-07
2.58954e-06
-1.82532e-08
2.57477e-06
-5.2973e-07
2.57905e-06
1.35374e-07
2.57578e-06
-1.41038e-07
2.57962e-06
8.86261e-08
2.58052e-06
5.93155e-08
2.57569e-06
-1.36162e-07
2.57332e-06
1.4024e-08
2.57373e-06
2.83758e-09
2.57449e-06
5.09953e-08
2.57085e-06
1.48657e-08
2.5656e-06
1.85915e-09
2.57187e-06
1.56358e-07
2.56378e-06
7.82355e-08
2.57259e-06
1.91813e-07
2.56674e-06
1.80322e-07
2.56768e-06
1.73095e-07
2.24094e-07
2.57183e-06
2.707e-06
8.33372e-08
2.71696e-06
2.25394e-07
2.71338e-06
-1.46821e-08
2.69797e-06
-5.14311e-07
2.70266e-06
1.30681e-07
2.69878e-06
-1.37162e-07
2.70313e-06
8.42795e-08
2.70333e-06
5.91122e-08
2.69918e-06
-1.32015e-07
2.69623e-06
1.69775e-08
2.69696e-06
2.11028e-09
2.69757e-06
5.03866e-08
2.69396e-06
1.84732e-08
2.6889e-06
6.91596e-09
2.6945e-06
1.50758e-07
2.68716e-06
8.55758e-08
2.69484e-06
1.84139e-07
2.69021e-06
1.84953e-07
2.69054e-06
1.72765e-07
2.19157e-07
2.69547e-06
2.83636e-06
8.4246e-08
2.84662e-06
2.15132e-07
2.84313e-06
-1.11859e-08
2.82707e-06
-4.98257e-07
2.83217e-06
1.25578e-07
2.82765e-06
-1.32638e-07
2.83261e-06
7.93152e-08
2.83209e-06
5.9633e-08
2.82862e-06
-1.28544e-07
2.82515e-06
2.04483e-08
2.82601e-06
1.24862e-09
2.82668e-06
4.97248e-08
2.82286e-06
2.22871e-08
2.81824e-06
1.15329e-08
2.82308e-06
1.45921e-07
2.81641e-06
9.22476e-08
2.82319e-06
1.7736e-07
2.81956e-06
1.88584e-07
2.81947e-06
1.72852e-07
2.13695e-07
2.82493e-06
2.97192e-06
8.52176e-08
2.98246e-06
2.04597e-07
2.97906e-06
-7.78837e-09
2.96236e-06
-4.81553e-07
2.9679e-06
1.20035e-07
2.96268e-06
-1.27415e-07
2.96832e-06
7.3672e-08
2.96707e-06
6.08837e-08
2.96423e-06
-1.25705e-07
2.96037e-06
2.43081e-08
2.96114e-06
4.76939e-10
2.9621e-06
4.87657e-08
2.95785e-06
2.65439e-08
2.95381e-06
1.55737e-08
2.95794e-06
1.41783e-07
2.9517e-06
9.84902e-08
2.95784e-06
1.71223e-07
2.95514e-06
1.91286e-07
2.95468e-06
1.73312e-07
2.07872e-07
2.9605e-06
3.11398e-06
8.62402e-08
3.12476e-06
1.93817e-07
3.1215e-06
-4.52509e-09
3.10412e-06
-4.6417e-07
3.11014e-06
1.14008e-07
3.10417e-06
-1.21446e-07
3.11052e-06
6.73248e-08
3.10857e-06
6.28371e-08
3.10626e-06
-1.23401e-07
3.10221e-06
2.83618e-08
3.10262e-06
6.58217e-11
3.10413e-06
4.72572e-08
3.09927e-06
3.14086e-08
3.09577e-06
1.90647e-08
3.09943e-06
1.38128e-07
3.09333e-06
1.04591e-07
3.09896e-06
1.65587e-07
3.09728e-06
1.92967e-07
3.09642e-06
1.74173e-07
2.01836e-07
3.10246e-06
3.26285e-06
8.73004e-08
3.27384e-06
1.82832e-07
3.27076e-06
-1.44668e-09
3.25265e-06
-4.46065e-07
3.25921e-06
1.07447e-07
3.25245e-06
-1.14685e-07
3.2595e-06
6.028e-08
3.25691e-06
6.54212e-08
3.25499e-06
-1.21479e-07
3.25101e-06
3.23453e-08
3.25075e-06
3.22569e-10
3.25303e-06
4.49799e-08
3.24751e-06
3.69276e-08
3.24437e-06
2.22035e-08
3.24785e-06
1.34646e-07
3.24166e-06
1.10778e-07
3.24678e-06
1.60472e-07
3.24629e-06
1.93453e-07
3.24504e-06
1.7543e-07
1.95787e-07
3.25109e-06
3.41885e-06
8.83805e-08
3.42999e-06
1.71691e-07
3.42717e-06
1.37939e-09
3.40829e-06
-4.27185e-07
3.41543e-06
1.00303e-07
3.40785e-06
-1.07101e-07
3.41555e-06
5.25771e-08
3.41246e-06
6.85139e-08
3.4107e-06
-1.19723e-07
3.4071e-06
3.59413e-08
3.40588e-06
1.54942e-09
3.40905e-06
4.18098e-08
3.40298e-06
4.29955e-08
3.39987e-06
2.53169e-08
3.40346e-06
1.31052e-07
3.39716e-06
1.17082e-07
3.40156e-06
1.56072e-07
3.40243e-06
1.92581e-07
3.40091e-06
1.76953e-07
1.90006e-07
3.40669e-06
3.58233e-06
8.94573e-08
3.59356e-06
1.60462e-07
3.59107e-06
3.86783e-09
3.57136e-06
-4.07475e-07
3.57913e-06
9.25344e-08
3.57072e-06
-9.86879e-08
3.579e-06
4.42974e-08
3.57557e-06
7.19379e-08
3.57371e-06
-1.17861e-07
3.57085e-06
3.88027e-08
3.56841e-06
3.99335e-09
3.57244e-06
3.77819e-08
3.56609e-06
4.93356e-08
3.56259e-06
2.88252e-08
3.56651e-06
1.27131e-07
3.56023e-06
1.2336e-07
3.56365e-06
1.52648e-07
3.56595e-06
1.9029e-07
3.56443e-06
1.78467e-07
1.84822e-07
3.56961e-06
3.75366e-06
9.05013e-08
3.76489e-06
1.49233e-07
3.76285e-06
5.91205e-09
3.74224e-06
-3.86873e-07
3.75066e-06
8.41158e-08
3.74144e-06
-8.94682e-08
3.75017e-06
3.55686e-08
3.74665e-06
7.54594e-08
3.74436e-06
-1.15573e-07
3.74258e-06
4.05855e-08
3.73878e-06
7.79601e-09
3.74345e-06
3.31061e-08
3.73723e-06
5.55549e-08
3.73291e-06
3.31458e-08
3.73723e-06
1.22817e-07
3.73126e-06
1.29327e-07
3.73354e-06
1.50368e-07
3.73709e-06
1.8674e-07
3.73599e-06
1.79564e-07
1.80516e-07
3.7403e-06
3.93321e-06
9.14756e-08
3.94433e-06
1.38113e-07
3.94286e-06
7.3835e-09
3.92131e-06
-3.65324e-07
3.93038e-06
7.50523e-08
3.92042e-06
-7.95148e-08
3.92942e-06
2.65775e-08
3.92608e-06
7.879e-08
3.92303e-06
-1.12518e-07
3.92259e-06
4.10208e-08
3.91747e-06
1.29204e-08
3.92241e-06
2.81689e-08
3.91674e-06
6.12176e-08
3.9113e-06
3.85908e-08
3.91589e-06
1.18224e-07
3.9106e-06
1.34618e-07
3.91171e-06
1.49256e-07
3.91617e-06
1.82285e-07
3.91592e-06
1.79813e-07
1.77187e-07
3.91925e-06
4.12139e-06
9.23355e-08
4.13227e-06
1.27231e-07
4.13152e-06
8.13347e-09
4.10898e-06
-3.42783e-07
4.11865e-06
6.53883e-08
4.10808e-06
-6.8954e-08
4.11709e-06
1.75765e-08
4.11428e-06
8.15951e-08
4.11013e-06
-1.08365e-07
4.11117e-06
3.99764e-08
4.10497e-06
1.91252e-08
4.10966e-06
2.3474e-08
4.10492e-06
6.59596e-08
4.09826e-06
4.52519e-08
4.10282e-06
1.13665e-07
4.0986e-06
1.38833e-07
4.09866e-06
1.49199e-07
4.10357e-06
1.77372e-07
4.10449e-06
1.789e-07
1.74671e-07
4.107e-06
4.31861e-06
9.30286e-08
4.3291e-06
1.16742e-07
4.32924e-06
7.99358e-09
4.30568e-06
-3.19224e-07
4.31585e-06
5.52211e-08
4.30488e-06
-5.79866e-08
4.31356e-06
8.89891e-09
4.31165e-06
8.35056e-08
4.30612e-06
-1.02843e-07
4.3086e-06
3.75048e-08
4.30173e-06
2.59866e-08
4.30563e-06
1.95785e-08
4.30202e-06
6.95683e-08
4.29429e-06
5.29867e-08
4.29843e-06
1.0952e-07
4.2956e-06
1.41659e-07
4.29486e-06
1.49943e-07
4.29977e-06
1.72463e-07
4.30195e-06
1.76723e-07
1.72569e-07
4.30405e-06
4.52531e-06
9.34938e-08
4.53523e-06
1.06824e-07
4.53644e-06
6.78055e-09
4.51187e-06
-2.94654e-07
4.52238e-06
4.47134e-08
4.51128e-06
-4.68939e-08
4.51923e-06
9.52163e-10
4.51858e-06
8.41534e-08
4.51156e-06
-9.58206e-08
4.51519e-06
3.3876e-08
4.50816e-06
3.30161e-08
4.51081e-06
1.69249e-08
4.50832e-06
7.20668e-08
4.49987e-06
6.1437e-08
4.50326e-06
1.0613e-07
4.50197e-06
1.42945e-07
4.50076e-06
1.51154e-07
4.5053e-06
1.67916e-07
4.50861e-06
1.73415e-07
1.70387e-07
4.51079e-06
4.74194e-06
9.36642e-08
4.7511e-06
9.76636e-08
4.75356e-06
4.32606e-09
4.72805e-06
-2.6914e-07
4.73865e-06
3.41054e-08
4.7278e-06
-3.60371e-08
4.73455e-06
-5.79682e-09
4.73549e-06
8.32087e-08
4.72702e-06
-8.73473e-08
4.73134e-06
2.95538e-08
4.72461e-06
3.97444e-08
4.72575e-06
1.57822e-08
4.7242e-06
7.36202e-08
4.71546e-06
7.01728e-08
4.71793e-06
1.03665e-07
4.7181e-06
1.42777e-07
4.71678e-06
1.52475e-07
4.72076e-06
1.63927e-07
4.72486e-06
1.69322e-07
1.67681e-07
4.72756e-06
4.96899e-06
9.34679e-08
4.9772e-06
8.94607e-08
4.98103e-06
4.96094e-10
4.95473e-06
-2.4284e-07
4.9651e-06
2.37299e-08
4.95492e-06
-2.58507e-08
4.95998e-06
-1.08615e-08
4.96273e-06
8.04617e-08
4.95307e-06
-7.76875e-08
4.9575e-06
2.51227e-08
4.95142e-06
4.58239e-08
4.95097e-06
1.62273e-08
4.95012e-06
7.44744e-08
4.94156e-06
7.87277e-08
4.94304e-06
1.02186e-07
4.94445e-06
1.41369e-07
4.94333e-06
1.53593e-07
4.9467e-06
1.60557e-07
4.9512e-06
1.64827e-07
1.64231e-07
4.95465e-06
5.20696e-06
9.28293e-08
5.214e-06
8.2413e-08
5.21929e-06
-4.78619e-09
5.19247e-06
-2.16021e-07
5.20218e-06
1.40116e-08
5.19315e-06
-1.68212e-08
5.19606e-06
-1.37656e-08
5.20063e-06
7.58857e-08
5.19026e-06
-6.73176e-08
5.19418e-06
2.12072e-08
5.18893e-06
5.10722e-08
5.18701e-06
1.81483e-08
5.1866e-06
7.4883e-08
5.17861e-06
8.67194e-08
5.17917e-06
1.0163e-07
5.18156e-06
1.38973e-07
5.18087e-06
1.54281e-07
5.18366e-06
1.57769e-07
5.18824e-06
1.60252e-07
1.60085e-07
5.19238e-06
5.45634e-06
9.1674e-08
5.46206e-06
7.6701e-08
5.46878e-06
-1.1514e-08
5.44185e-06
-1.89091e-07
5.4504e-06
5.46473e-09
5.44302e-06
-9.44099e-09
5.44346e-06
-1.4209e-08
5.44954e-06
6.98121e-08
5.43912e-06
-5.68954e-08
5.44199e-06
1.83293e-08
5.43764e-06
5.54268e-08
5.43443e-06
2.13599e-08
5.43426e-06
7.50527e-08
5.42708e-06
9.38943e-08
5.42684e-06
1.01875e-07
5.42998e-06
1.35834e-07
5.4299e-06
1.54356e-07
5.43215e-06
1.55518e-07
5.4366e-06
1.55802e-07
1.5549e-07
5.4412e-06
5.7177e-06
8.99343e-08
5.72193e-06
7.24736e-08
5.73e-06
-1.95866e-08
5.70351e-06
-1.62599e-07
5.71031e-06
-1.34125e-09
5.70501e-06
-4.14225e-09
5.70297e-06
-1.21637e-08
5.70986e-06
6.2917e-08
5.70007e-06
-4.71007e-08
5.70156e-06
1.68346e-08
5.69803e-06
5.89636e-08
5.6939e-06
2.54848e-08
5.69382e-06
7.51315e-08
5.68756e-06
1.00161e-07
5.68655e-06
1.02877e-07
5.69026e-06
1.32125e-07
5.69096e-06
1.53658e-07
5.69271e-06
1.53769e-07
5.69694e-06
1.51574e-07
1.50736e-07
5.70169e-06
5.99157e-06
8.75526e-08
5.99422e-06
6.98314e-08
6.00343e-06
-2.87998e-08
5.97803e-06
-1.37204e-07
5.98251e-06
-5.81837e-09
5.97955e-06
-1.18389e-09
5.97534e-06
-7.95007e-09
5.98216e-06
5.60956e-08
5.97351e-06
-3.84448e-08
5.97356e-06
1.67763e-08
5.97058e-06
6.19519e-08
5.96603e-06
3.0035e-08
5.96599e-06
7.51674e-08
5.96063e-06
1.05525e-07
5.95892e-06
1.04583e-07
5.96294e-06
1.28103e-07
5.96459e-06
1.52011e-07
5.96594e-06
1.52423e-07
5.96985e-06
1.47663e-07
1.46025e-07
5.97456e-06
6.27856e-06
8.44849e-08
6.27956e-06
6.8828e-08
6.28962e-06
-3.88631e-08
6.266e-06
-1.13583e-07
6.26769e-06
-7.50264e-09
6.26704e-06
-5.33015e-10
6.26129e-06
-2.20833e-09
6.26708e-06
5.03085e-08
6.2599e-06
-3.126e-08
6.25862e-06
1.80512e-08
6.25584e-06
6.47328e-08
6.25123e-06
3.46433e-08
6.25137e-06
7.50264e-08
6.24694e-06
1.09962e-07
6.24458e-06
1.06941e-07
6.2486e-06
1.24085e-07
6.25133e-06
1.49272e-07
6.25247e-06
1.51291e-07
6.25594e-06
1.44194e-07
1.41432e-07
6.26053e-06
6.57925e-06
8.07063e-08
6.57861e-06
6.94633e-08
6.58917e-06
-4.94242e-08
6.56793e-06
-9.23438e-08
6.56664e-06
-6.20784e-09
6.56793e-06
-1.81966e-09
6.56147e-06
4.25042e-09
6.56542e-06
4.63567e-08
6.5597e-06
-2.55373e-08
6.55747e-06
2.02745e-08
6.55449e-06
6.77124e-08
6.55005e-06
3.90887e-08
6.55054e-06
7.45355e-08
6.54713e-06
1.13369e-07
6.5442e-06
1.09869e-07
6.54788e-06
1.20413e-07
6.55172e-06
1.45428e-07
6.55296e-06
1.50052e-07
6.55585e-06
1.41309e-07
1.36984e-07
6.56029e-06
6.89428e-06
7.62138e-08
6.89205e-06
7.16999e-08
6.90274e-06
-6.01156e-08
6.88437e-06
-7.39785e-08
6.88018e-06
-2.01079e-09
6.88278e-06
-4.42713e-09
6.87643e-06
1.06062e-08
6.87807e-06
4.47147e-08
6.87348e-06
-2.09459e-08
6.87106e-06
2.2695e-08
6.8676e-06
7.11701e-08
6.86308e-06
4.36118e-08
6.86407e-06
7.35378e-08
6.86183e-06
1.15613e-07
6.85853e-06
1.13171e-07
6.86152e-06
1.17423e-07
6.8663e-06
1.40644e-07
6.86804e-06
1.4831e-07
6.87031e-06
1.39042e-07
1.32801e-07
6.87449e-06
7.22432e-06
7.10316e-08
7.22055e-06
7.54716e-08
7.231e-06
-7.0567e-08
7.21589e-06
-5.88657e-08
7.20909e-06
4.78089e-09
7.21229e-06
-7.62074e-09
7.20673e-06
1.61622e-08
7.20596e-06
4.54853e-08
7.20194e-06
-1.69203e-08
7.20004e-06
2.45866e-08
7.19617e-06
7.50398e-08
7.19113e-06
4.86542e-08
7.19255e-06
7.21163e-08
7.19165e-06
1.16513e-07
7.18825e-06
1.16574e-07
7.19033e-06
1.15348e-07
7.1957e-06
1.35269e-07
7.19828e-06
1.45735e-07
7.20011e-06
1.37204e-07
1.29083e-07
7.20383e-06
7.57004e-06
6.52195e-08
7.56484e-06
8.06669e-08
7.57468e-06
-8.04031e-08
7.56306e-06
-4.72472e-08
7.55419e-06
1.36469e-08
7.55718e-06
-1.06073e-08
7.55297e-06
2.03697e-08
7.55002e-06
4.84382e-08
7.54591e-06
-1.28072e-08
7.54494e-06
2.55548e-08
7.541e-06
7.89749e-08
7.53517e-06
5.44915e-08
7.53664e-06
7.06445e-08
7.53721e-06
1.15943e-07
7.53408e-06
1.19698e-07
7.53515e-06
1.14286e-07
7.54067e-06
1.29746e-07
7.54423e-06
1.42176e-07
7.54599e-06
1.35447e-07
1.25954e-07
7.54911e-06
7.93215e-06
5.88765e-08
7.92584e-06
8.69787e-08
7.93454e-06
-8.90985e-08
7.92651e-06
-3.922e-08
7.91623e-06
2.39257e-08
7.91826e-06
-1.26365e-08
7.91578e-06
2.28479e-08
7.91113e-06
5.3093e-08
7.90621e-06
-7.89331e-09
7.90626e-06
2.55093e-08
7.90279e-06
8.24421e-08
7.89611e-06
6.11729e-08
7.89716e-06
6.9599e-08
7.89913e-06
1.13965e-07
7.89671e-06
1.22122e-07
7.89683e-06
1.14164e-07
7.90206e-06
1.24521e-07
7.90653e-06
1.377e-07
7.90859e-06
1.3339e-07
1.23358e-07
7.91119e-06
8.31141e-06
5.21459e-08
8.30451e-06
9.38784e-08
8.31137e-06
-9.59588e-08
8.30687e-06
-3.4722e-08
8.29594e-06
3.48613e-08
8.29639e-06
-1.3086e-08
8.29574e-06
2.34947e-08
8.29007e-06
5.87601e-08
8.28379e-06
-1.60748e-09
8.28461e-06
2.46925e-08
8.28216e-06
8.48898e-08
8.27488e-06
6.84518e-08
8.27501e-06
6.94666e-08
8.27816e-06
1.10821e-07
8.27679e-06
1.23484e-07
8.27623e-06
1.14733e-07
8.28079e-06
1.19961e-07
8.28595e-06
1.32539e-07
8.28857e-06
1.30764e-07
1.21056e-07
8.29087e-06
8.70859e-06
4.52149e-08
8.70176e-06
1.00711e-07
8.706e-06
-1.00196e-07
8.70485e-06
-3.35717e-08
8.69408e-06
4.56237e-08
8.69251e-06
-1.15117e-08
8.69349e-06
2.25171e-08
8.68761e-06
6.46349e-08
8.6797e-06
6.30579e-09
8.68071e-06
2.36849e-08
8.67973e-06
8.58681e-08
8.67231e-06
7.58759e-08
8.67123e-06
7.05459e-08
8.67509e-06
1.06956e-07
8.67504e-06
1.23538e-07
8.67412e-06
1.15651e-07
8.67782e-06
1.1626e-07
8.68331e-06
1.27052e-07
8.68662e-06
1.27454e-07
1.18743e-07
8.68893e-06
9.12453e-06
3.83068e-08
9.11839e-06
1.06845e-07
9.11933e-06
-1.01135e-07
9.12124e-06
-3.54776e-08
9.11149e-06
5.53702e-08
9.10762e-06
-7.64194e-09
9.10978e-06
2.03593e-08
9.10448e-06
6.99341e-08
9.09499e-06
1.57915e-08
9.09547e-06
2.32063e-08
9.09615e-06
8.51916e-08
9.08916e-06
8.28669e-08
9.08683e-06
7.28702e-08
9.09089e-06
1.02903e-07
9.09216e-06
1.22264e-07
9.09133e-06
1.1648e-07
9.09411e-06
1.13487e-07
9.09957e-06
1.21583e-07
9.10352e-06
1.23503e-07
1.16186e-07
9.10608e-06
9.56011e-06
3.16604e-08
9.55525e-06
1.11697e-07
9.55245e-06
-9.83329e-08
9.55694e-06
-3.99631e-08
9.54901e-06
6.32979e-08
9.54275e-06
-1.38166e-09
9.54546e-06
1.76464e-08
9.54136e-06
7.40404e-08
9.53076e-06
2.63891e-08
9.53001e-06
2.39542e-08
9.53216e-06
8.30457e-08
9.52618e-06
8.88488e-08
9.52282e-06
7.62206e-08
9.52656e-06
9.91712e-08
9.52902e-06
1.19799e-07
9.52867e-06
1.16829e-07
9.5306e-06
1.11559e-07
9.53574e-06
1.16444e-07
9.5402e-06
1.19039e-07
1.13281e-07
9.54311e-06
1.00163e-05
2.55059e-08
1.00132e-05
1.14779e-07
1.00066e-05
-9.17205e-08
1.00129e-05
-4.62327e-08
1.00075e-05
6.86877e-08
9.99904e-06
7.05128e-09
1.00015e-05
1.51806e-08
9.99904e-06
7.65118e-08
9.98797e-06
3.74542e-08
9.98559e-06
2.63351e-08
9.98863e-06
8.00114e-08
9.98413e-06
9.33417e-08
9.98011e-06
8.02456e-08
9.98317e-06
9.61094e-08
9.98657e-06
1.16395e-07
9.98694e-06
1.16458e-07
9.9883e-06
1.10207e-07
9.99283e-06
1.1191e-07
9.99763e-06
1.14242e-07
1.09982e-07
1.00009e-05
1.04941e-05
2.00299e-08
1.04931e-05
1.15789e-07
1.04832e-05
-8.1768e-08
1.04899e-05
-5.30292e-08
1.04876e-05
7.09888e-08
1.04776e-05
1.70766e-08
1.0479e-05
1.37817e-08
1.04784e-05
7.71758e-08
1.04676e-05
4.82345e-08
1.04635e-05
3.04464e-08
1.04667e-05
7.67987e-08
1.04638e-05
9.61918e-08
1.04596e-05
8.45038e-08
1.04618e-05
9.38472e-08
1.04658e-05
1.12393e-07
1.04671e-05
1.15243e-07
1.04682e-05
1.09084e-07
1.0472e-05
1.0812e-07
1.04768e-05
1.09399e-07
1.06262e-07
1.04805e-05
1.09947e-05
1.53549e-08
1.09958e-05
1.14649e-07
1.09835e-05
-6.94001e-08
1.09893e-05
-5.88797e-08
1.09903e-05
7.00444e-08
1.09797e-05
2.76643e-08
1.09792e-05
1.42476e-08
1.09802e-05
7.62094e-08
1.09704e-05
5.8007e-08
1.09649e-05
3.59289e-08
1.09677e-05
7.40293e-08
1.09662e-05
9.76953e-08
1.09621e-05
8.85437e-08
1.09636e-05
9.23858e-08
1.09679e-05
1.0812e-07
1.097e-05
1.13153e-07
1.09711e-05
1.07904e-07
1.09743e-05
1.05016e-07
1.09788e-05
1.04804e-07
1.0221e-07
1.09829e-05
1.15192e-05
1.15401e-08
1.15224e-05
1.11476e-07
1.15086e-05
-5.56924e-08
1.15123e-05
-6.25231e-08
1.15162e-05
6.61399e-08
1.15062e-05
3.76788e-08
1.15036e-05
1.68556e-08
1.15055e-05
7.43099e-08
1.14973e-05
6.62252e-08
1.1491e-05
4.21821e-08
1.14929e-05
7.20897e-08
1.14924e-05
9.82103e-08
1.14888e-05
9.21469e-08
1.14896e-05
9.16489e-08
1.14938e-05
1.03832e-07
1.14968e-05
1.10241e-07
1.14982e-05
1.06433e-07
1.15008e-05
1.02426e-07
1.1505e-05
1.00645e-07
9.80488e-08
1.15091e-05
1.20688e-05
8.58747e-09
1.20737e-05
1.06561e-07
1.20597e-05
-4.16601e-08
1.20603e-05
-6.31977e-08
1.20664e-05
6.00636e-08
1.20581e-05
4.60152e-08
1.20536e-05
2.13716e-08
1.20555e-05
7.24056e-08
1.2049e-05
7.26814e-08
1.20426e-05
4.86053e-08
1.20438e-05
7.09176e-08
1.20439e-05
9.80645e-08
1.20407e-05
9.53434e-08
1.20408e-05
9.1571e-08
1.20449e-05
9.97322e-08
1.20485e-05
1.06618e-07
1.20504e-05
1.04498e-07
1.20528e-05
1.00102e-07
1.20564e-05
9.70002e-08
9.39675e-08
1.20605e-05
1.26447e-05
6.44288e-09
1.2651e-05
1.00308e-07
1.26374e-05
-2.81107e-08
1.2635e-05
-6.08038e-08
1.26421e-05
5.29819e-08
1.26361e-05
5.20232e-08
1.26305e-05
2.69426e-08
1.26316e-05
7.13089e-08
1.26266e-05
7.77044e-08
1.26206e-05
5.46767e-08
1.26213e-05
7.01583e-08
1.26219e-05
9.74488e-08
1.26191e-05
9.8145e-08
1.26185e-05
9.21741e-08
1.26222e-05
9.60494e-08
1.26264e-05
1.02447e-07
1.26289e-05
1.01963e-07
1.26312e-05
9.78256e-08
1.26344e-05
9.38221e-08
9.01124e-08
1.26382e-05
1.32484e-05
5.01062e-09
1.32556e-05
9.31067e-08
1.32431e-05
-1.56049e-08
1.3238e-05
-5.57112e-08
1.32449e-05
4.60892e-08
1.32413e-05
5.55684e-08
1.32357e-05
3.25611e-08
1.32357e-05
7.13561e-08
1.32314e-05
8.19416e-08
1.32259e-05
6.0213e-08
1.32266e-05
6.94445e-08
1.32279e-05
9.61851e-08
1.32254e-05
1.00575e-07
1.32242e-05
9.34354e-08
1.32271e-05
9.30675e-08
1.32316e-05
9.79905e-08
1.32348e-05
9.87161e-08
1.32373e-05
9.54179e-08
1.32401e-05
9.09444e-08
8.65815e-08
1.32437e-05
1.3881e-05
4.14884e-09
1.38887e-05
8.54477e-08
1.38777e-05
-4.60693e-09
1.38704e-05
-4.84502e-08
1.38763e-05
4.02478e-08
1.38747e-05
5.71003e-08
1.38699e-05
3.73772e-08
1.3869e-05
7.22489e-08
1.38649e-05
8.60664e-08
1.38597e-05
6.54405e-08
1.38605e-05
6.85727e-08
1.38628e-05
9.38987e-08
1.3861e-05
1.02426e-07
1.38592e-05
9.52663e-08
1.38611e-05
9.10866e-08
1.38656e-05
9.35549e-08
1.38694e-05
9.48375e-08
1.38723e-05
9.26121e-08
1.3875e-05
8.82382e-08
8.33324e-08
1.38782e-05
1.45441e-05
3.69367e-09
1.45517e-05
7.78911e-08
1.45425e-05
4.60012e-09
1.45338e-05
-3.97355e-08
1.4538e-05
3.60218e-08
1.45378e-05
5.72895e-08
1.45342e-05
4.09943e-08
1.45332e-05
7.32151e-08
1.4529e-05
9.02986e-08
1.45234e-05
7.10059e-08
1.45243e-05
6.77168e-08
1.45278e-05
9.0372e-08
1.45271e-05
1.03072e-07
1.45249e-05
9.75004e-08
1.45258e-05
9.02173e-08
1.45298e-05
8.95533e-08
1.4534e-05
9.05798e-08
1.45374e-05
8.92223e-08
1.45402e-05
8.54876e-08
8.03353e-08
1.45432e-05
1.52391e-05
3.4899e-09
1.5246e-05
7.09319e-08
1.52387e-05
1.19625e-08
1.52293e-05
-3.03584e-08
1.52316e-05
3.36905e-08
1.5232e-05
5.69648e-08
1.52297e-05
4.33036e-08
1.52293e-05
7.36085e-08
1.52252e-05
9.43625e-08
1.52192e-05
7.7043e-08
1.52192e-05
6.77186e-08
1.52237e-05
8.57865e-08
1.5225e-05
1.01816e-07
1.52229e-05
9.96471e-08
1.52227e-05
9.03377e-08
1.52259e-05
8.64316e-08
1.52302e-05
8.6218e-08
1.52341e-05
8.53457e-08
1.52372e-05
8.23985e-08
7.75052e-08
1.524e-05
1.59674e-05
3.42279e-09
1.59734e-05
6.49263e-08
1.59677e-05
1.7648e-08
1.59585e-05
-2.10904e-08
1.59588e-05
3.32966e-08
1.59589e-05
5.68822e-08
1.59576e-05
4.4581e-08
1.59583e-05
7.29748e-08
1.5955e-05
9.76774e-08
1.59487e-05
8.33473e-08
1.59472e-05
6.92111e-08
1.59521e-05
8.08483e-08
1.59554e-05
9.85323e-08
1.59544e-05
1.00676e-07
1.59535e-05
9.12331e-08
1.59556e-05
8.43246e-08
1.59596e-05
8.2154e-08
1.59638e-05
8.12114e-08
1.59673e-05
7.88753e-08
7.46286e-08
1.59702e-05
1.67306e-05
3.46048e-09
1.67355e-05
5.99462e-08
1.6731e-05
2.21698e-08
1.67225e-05
-1.26011e-08
1.67213e-05
3.45366e-08
1.67205e-05
5.76432e-08
1.67196e-05
4.55039e-08
1.67215e-05
7.10354e-08
1.67197e-05
9.95335e-08
1.67135e-05
8.95739e-08
1.67106e-05
7.21142e-08
1.67146e-05
7.67741e-08
1.67197e-05
9.35187e-08
1.67205e-05
9.98098e-08
1.67194e-05
9.23136e-08
1.67207e-05
8.30917e-08
1.6724e-05
7.87782e-08
1.67282e-05
7.70166e-08
1.67321e-05
7.50486e-08
7.1531e-08
1.67352e-05
1.75302e-05
3.64412e-09
1.75344e-05
5.56956e-08
1.75304e-05
2.62221e-08
1.7523e-05
-5.18e-09
1.75208e-05
3.66998e-08
1.75188e-05
5.96434e-08
1.75174e-05
4.69412e-08
1.75205e-05
6.7883e-08
1.75207e-05
9.93556e-08
1.75151e-05
9.51237e-08
1.75112e-05
7.6055e-08
1.75136e-05
7.43883e-08
1.75195e-05
8.76403e-08
1.75224e-05
9.68362e-08
1.75221e-05
9.26102e-08
1.75226e-05
8.26059e-08
1.75253e-05
7.60991e-08
1.75292e-05
7.31465e-08
1.75332e-05
7.1032e-08
6.81866e-08
1.75365e-05
1.8368e-05
4.02068e-09
1.83717e-05
5.19301e-08
1.83678e-05
3.01522e-08
1.83612e-05
1.45095e-09
1.83591e-05
3.87385e-08
1.8356e-05
6.27649e-08
1.83532e-05
4.97294e-08
1.83569e-05
6.41812e-08
1.83593e-05
9.69525e-08
1.83553e-05
9.91372e-08
1.83507e-05
8.07052e-08
1.83514e-05
7.36243e-08
1.83569e-05
8.21767e-08
1.83615e-05
9.21978e-08
1.83629e-05
9.12886e-08
1.8363e-05
8.24582e-08
1.83651e-05
7.40108e-08
1.83684e-05
6.9818e-08
1.83724e-05
6.70422e-08
6.46072e-08
1.8376e-05
1.92458e-05
4.63725e-09
1.92492e-05
4.85037e-08
1.92454e-05
3.39955e-08
1.92391e-05
7.66318e-09
1.92376e-05
4.02663e-08
1.92343e-05
6.60352e-08
1.92301e-05
5.39997e-08
1.9233e-05
6.1269e-08
1.92373e-05
9.26469e-08
1.92354e-05
1.00991e-07
1.92308e-05