/*--------------------------------*- C++ -*----------------------------------*\
| =========                 |                                                 |
| \\      /  F ield         | OpenFOAM: The Open Source CFD Toolbox           |
|  \\    /   O peration     | Version:  2106                                  |
|   \\  /    A nd           | Website:  www.openfoam.com                      |
|    \\/     M anipulation  |                                                 |
\*---------------------------------------------------------------------------*/
FoamFile
{
    version     2.0;
    format      ascii;
    arch        "LSB;label=32;scalar=64";
    class       volVectorField;
    location    "0.83";
    object      U;
}
// * * * * * * * * * * * * * * * * * * * * * * * * * * * * * * * * * * * * * //

dimensions      [0 1 -1 0 0 0 0];

internalField   nonuniform List<vector> 
9600
(
(0.865231 0.00152224 0)
(1.15363 0.00229792 0)
(0.852058 -0.00234187 0)
(1.09763 -0.00719949 0)
(0.902011 0.00318852 0)
(1.11706 -0.00568696 0)
(0.81867 0.00407282 0)
(1.14068 0.00411976 0)
(0.850389 -0.004833 0)
(1.12024 0.00240372 0)
(0.894808 -0.000468339 0)
(1.11123 0.00304532 0)
(0.905535 -0.00192041 0)
(1.1049 9.83765e-05 0)
(0.907614 0.00746932 0)
(1.10765 -0.00106751 0)
(0.893574 0.0125781 0)
(1.11122 -0.000364497 0)
(0.859233 0.009022 0)
(1.11231 0.00149311 0)
(0.875456 0.00131317 0)
(1.14 0.00258523 0)
(0.867405 -0.00203482 0)
(1.08425 -0.00743595 0)
(0.911115 0.0027761 0)
(1.10191 -0.00460489 0)
(0.835072 0.00366975 0)
(1.11925 0.00398525 0)
(0.876504 -0.00479343 0)
(1.09867 0.00201248 0)
(0.921686 -0.000529003 0)
(1.0862 0.00303846 0)
(0.939901 -0.00196303 0)
(1.07184 0.000231884 0)
(0.951382 0.00724128 0)
(1.05872 -0.000477478 0)
(0.955231 0.0124842 0)
(1.0373 0.000392937 0)
(0.957366 0.0102085 0)
(0.998402 0.00196545 0)
(0.895227 0.00114339 0)
(1.11524 0.00279525 0)
(0.89294 -0.00176709 0)
(1.06227 -0.00767545 0)
(0.928594 0.00249519 0)
(1.07703 -0.00370571 0)
(0.867944 0.00322989 0)
(1.08397 0.00365798 0)
(0.917511 -0.00470964 0)
(1.06332 0.00151502 0)
(0.957902 -0.000438194 0)
(1.05148 0.00281885 0)
(0.977814 -0.00177081 0)
(1.03477 6.93543e-05 0)
(0.989672 0.00741238 0)
(1.0239 -0.0005493 0)
(0.992611 0.012501 0)
(1.01227 0.000618742 0)
(0.99213 0.0101442 0)
(0.993424 0.00279389 0)
(0.920925 0.00103783 0)
(1.08467 0.00291184 0)
(0.922684 -0.0014992 0)
(1.03754 -0.00785172 0)
(0.949904 0.0023052 0)
(1.04892 -0.00309223 0)
(0.907939 0.00303717 0)
(1.04853 0.00318441 0)
(0.956696 -0.00454331 0)
(1.03125 0.00106053 0)
(0.984991 -0.000320076 0)
(1.02607 0.00251822 0)
(0.999257 -0.00152014 0)
(1.01421 -0.000115895 0)
(1.00513 0.00756856 0)
(1.01197 -0.000523736 0)
(1.00392 0.0127041 0)
(1.00932 0.000697539 0)
(1.00065 0.0105556 0)
(0.998939 0.00349822 0)
(0.947615 0.000975988 0)
(1.05452 0.00297776 0)
(0.950403 -0.00122859 0)
(1.01616 -0.00799482 0)
(0.969417 0.00215953 0)
(1.02418 -0.00268876 0)
(0.943989 0.00299367 0)
(1.02352 0.00268276 0)
(0.983357 -0.00437375 0)
(1.01222 0.000730542 0)
(0.998771 -0.000273537 0)
(1.01389 0.00228576 0)
(1.00703 -0.00132785 0)
(1.00707 -0.000194597 0)
(1.00893 0.00755762 0)
(1.00944 -0.000405909 0)
(1.00672 0.0125996 0)
(1.00931 0.00102445 0)
(1.00344 0.0108307 0)
(1.00101 0.00442641 0)
(0.970742 0.000943689 0)
(1.02996 0.00301794 0)
(0.971965 -0.000994796 0)
(1.00183 -0.00810316 0)
(0.983505 0.00206935 0)
(1.00669 -0.00244901 0)
(0.970001 0.00294738 0)
(1.01091 0.00226483 0)
(0.99711 -0.00424614 0)
(1.00456 0.000534205 0)
(1.00392 -0.000281048 0)
(1.00927 0.00211532 0)
(1.00854 -0.00117992 0)
(1.00516 -0.000247365 0)
(1.00964 0.00748687 0)
(1.00928 -0.000292908 0)
(1.0077 0.0123638 0)
(1.00964 0.00145904 0)
(1.00458 0.010775 0)
(1.00203 0.00547759 0)
(0.98753 0.000925786 0)
(1.01342 0.00305162 0)
(0.986407 -0.000817667 0)
(0.994745 -0.00816555 0)
(0.991665 0.00202807 0)
(0.996632 -0.00233449 0)
(0.985676 0.00284051 0)
(1.00655 0.00197 0)
(1.00255 -0.00414481 0)
(1.00234 0.000415709 0)
(1.00507 -0.000295693 0)
(1.00704 0.00197791 0)
(1.00749 -0.00105543 0)
(1.00405 -0.000319238 0)
(1.00925 0.00738654 0)
(1.00901 -0.000183644 0)
(1.00769 0.0121282 0)
(1.00939 0.00192227 0)
(1.00463 0.0106188 0)
(1.00217 0.00656104 0)
(0.99751 0.000909159 0)
(1.00435 0.00308672 0)
(0.995041 -0.000695848 0)
(0.992771 -0.00818273 0)
(0.995421 0.00202238 0)
(0.992116 -0.00229773 0)
(0.993684 0.00267647 0)
(1.00556 0.00177422 0)
(1.00394 -0.00404233 0)
(1.00146 0.000330856 0)
(1.00442 -0.000289257 0)
(1.00506 0.00186373 0)
(1.00526 -0.000937009 0)
(1.00235 -0.000414523 0)
(1.00771 0.0072507 0)
(1.00766 -5.83157e-05 0)
(1.00641 0.0118608 0)
(1.00798 0.00245573 0)
(1.00365 0.0104405 0)
(1.00137 0.00763274 0)
(1.00198 0.000888389 0)
(1.00051 0.00311875 0)
(0.999863 -0.000616371 0)
(0.993328 -0.00816065 0)
(0.996671 0.00204254 0)
(0.991011 -0.0022999 0)
(0.997015 0.00248091 0)
(1.00513 0.00163897 0)
(1.00369 -0.00392498 0)
(1.00044 0.000266842 0)
(1.00294 -0.000257351 0)
(1.00297 0.00177 0)
(1.00268 -0.000815025 0)
(1.00007 -0.000515379 0)
(1.00516 0.00708921 0)
(1.00525 9.67849e-05 0)
(1.00398 0.0115425 0)
(1.0056 0.00305405 0)
(1.00191 0.0101977 0)
(0.999998 0.00865421 0)
(1.00296 0.000865243 0)
(0.999536 0.00313746 0)
(1.0025 -0.000563161 0)
(0.994611 -0.00810525 0)
(0.996776 0.00207618 0)
(0.99174 -0.00231624 0)
(0.997884 0.00228398 0)
(1.00439 0.00153631 0)
(1.00283 -0.00379295 0)
(0.999168 0.000221216 0)
(1.00122 -0.00020731 0)
(1.00097 0.00169219 0)
(1.00031 -0.000684292 0)
(0.997708 -0.000604761 0)
(1.00217 0.00691697 0)
(1.00238 0.000287018 0)
(1.001 0.0111747 0)
(1.00287 0.00368365 0)
(0.99993 0.00988993 0)
(0.998508 0.00956583 0)
(1.00223 0.000843931 0)
(0.99977 0.00313496 0)
(1.00397 -0.0005228 0)
(0.995764 -0.00802186 0)
(0.996483 0.00210905 0)
(0.993271 -0.00233208 0)
(0.997661 0.00210807 0)
(1.00335 0.00144998 0)
(1.00182 -0.00365131 0)
(0.997862 0.000190891 0)
(0.999656 -0.000146702 0)
(0.999324 0.00162268 0)
(0.998428 -0.000542348 0)
(0.995691 -0.000660439 0)
(0.99934 0.00673607 0)
(0.999683 0.0005172 0)
(0.998174 0.010761 0)
(1.00037 0.00431334 0)
(0.998194 0.00954034 0)
(0.997244 0.0103266 0)
(1.00097 0.000827381 0)
(1.00033 0.00310929 0)
(1.0048 -0.000486363 0)
(0.996548 -0.00791527 0)
(0.996134 0.00213022 0)
(0.994958 -0.00234014 0)
(0.99711 0.00196326 0)
(1.00225 0.00137244 0)
(1.00088 -0.00350472 0)
(0.996709 0.00017271 0)
(0.998423 -8.37033e-05 0)
(0.99812 0.00155726 0)
(0.997098 -0.000393992 0)
(0.994222 -0.000670101 0)
(0.997079 0.00654409 0)
(0.997558 0.000784028 0)
(0.995956 0.0103056 0)
(0.998417 0.00492875 0)
(0.996949 0.00917279 0)
(0.99635 0.0109183 0)
(0.999791 0.000816681 0)
(1.00086 0.00306213 0)
(1.00527 -0.000449269 0)
(0.997006 -0.00778958 0)
(0.995854 0.00213419 0)
(0.996439 -0.0023381 0)
(0.996595 0.00184992 0)
(1.00126 0.00130125 0)
(1.0001 -0.00335791 0)
(0.995806 0.000164526 0)
(0.997557 -2.62382e-05 0)
(0.997335 0.00149685 0)
(0.996243 -0.00024609 0)
(0.993301 -0.000638081 0)
(0.995496 0.00634081 0)
(0.996095 0.00107913 0)
(0.994464 0.00981949 0)
(0.997071 0.00551364 0)
(0.996205 0.0088272 0)
(0.995812 0.0113365 0)
(0.998902 0.000811438 0)
(1.00124 0.00299696 0)
(1.00554 -0.000409757 0)
(0.997254 -0.00764787 0)
(0.995666 0.00212017 0)
(0.997561 -0.00232592 0)
(0.99624 0.0017625 0)
(1.00044 0.00123722 0)
(0.999524 -0.00321507 0)
(0.995172 0.000165225 0)
(0.997004 2.07015e-05 0)
(0.996879 0.00144363 0)
(0.995738 -0.000105643 0)
(0.992819 -0.000564203 0)
(0.994504 0.00612184 0)
(0.995195 0.00140032 0)
(0.993585 0.00932183 0)
(0.996216 0.00604756 0)
(0.995846 0.0085359 0)
(0.995541 0.0115849 0)
(0.998324 0.000810664 0)
(1.00146 0.00291768 0)
(1.00567 -0.000367914 0)
(0.997395 -0.00749237 0)
(0.995554 0.00209045 0)
(0.998313 -0.00230469 0)
(0.996045 0.00169319 0)
(0.999822 0.00118207 0)
(0.999127 -0.0030788 0)
(0.99478 0.000174081 0)
(0.996687 5.45584e-05 0)
(0.996647 0.00139826 0)
(0.995465 2.55381e-05 0)
(0.992644 -0.000457295 0)
(0.993948 0.0058932 0)
(0.994703 0.00173537 0)
(0.993143 0.00883819 0)
(0.995701 0.00651192 0)
(0.995738 0.00831267 0)
(0.995446 0.0116834 0)
(0.998002 0.000813253 0)
(1.00157 0.00282792 0)
(1.00569 -0.000324646 0)
(0.997489 -0.00732496 0)
(0.995505 0.00204879 0)
(0.998761 -0.00227551 0)
(0.995966 0.00163399 0)
(0.999383 0.00113691 0)
(0.998878 -0.00295249 0)
(0.994577 0.000194403 0)
(0.996528 7.36971e-05 0)
(0.996548 0.00136223 0)
(0.995329 0.000147848 0)
(0.992664 -0.000322765 0)
(0.993684 0.00566202 0)
(0.994478 0.00206648 0)
(0.992984 0.00838932 0)
(0.995404 0.0069065 0)
(0.99578 0.00816062 0)
(0.995469 0.0116664 0)
(0.997855 0.000818271 0)
(1.0016 0.00273056 0)
(1.00564 -0.000280937 0)
(0.997561 -0.00714714 0)
(0.995507 0.00199815 0)
(0.998996 -0.00223821 0)
(0.995961 0.00157727 0)
(0.999087 0.00110297 0)
(0.998738 -0.00283759 0)
(0.994507 0.000227574 0)
(0.996469 7.88641e-05 0)
(0.99652 0.00133499 0)
(0.995265 0.000258892 0)
(0.992795 -0.000169044 0)
(0.993604 0.00543427 0)
(0.994423 0.00238114 0)
(0.993006 0.00798733 0)
(0.995251 0.00724216 0)
(0.995911 0.00806507 0)
(0.995576 0.0115608 0)
(0.997815 0.000824975 0)
(1.00159 0.0026277 0)
(1.00553 -0.000237377 0)
(0.997622 -0.00696012 0)
(0.99555 0.0019407 0)
(0.999105 -0.00219273 0)
(0.995999 0.00151735 0)
(0.998893 0.00108058 0)
(0.998672 -0.00273557 0)
(0.994521 0.00027413 0)
(0.996471 7.22008e-05 0)
(0.996526 0.00131665 0)
(0.995234 0.000358404 0)
(0.992983 -7.48303e-06 0)
(0.993636 0.00522399 0)
(0.994469 0.00266726 0)
(0.993144 0.00763336 0)
(0.995192 0.00751997 0)
(0.996093 0.00800416 0)
(0.995746 0.0113898 0)
(0.997832 0.000832879 0)
(1.00157 0.00252053 0)
(1.00538 -0.000194269 0)
(0.997673 -0.00676469 0)
(0.995622 0.00187748 0)
(0.999151 -0.00213809 0)
(0.996063 0.00144948 0)
(0.99876 0.00107045 0)
(0.99865 -0.00264804 0)
(0.994582 0.000334796 0)
(0.996505 5.65047e-05 0)
(0.996547 0.00130551 0)
(0.995216 0.000453417 0)
(0.993194 0.000153121 0)
(0.993731 0.00503822 0)
(0.994572 0.00292603 0)
(0.993354 0.00732051 0)
(0.995199 0.00774171 0)
(0.996299 0.00796906 0)
(0.995965 0.0111743 0)
(0.997873 0.00084168 0)
(1.00154 0.00240979 0)
(1.00523 -0.000151918 0)
(0.997719 -0.00656104 0)
(0.99571 0.00180854 0)
(0.99917 -0.00207365 0)
(0.996141 0.00137182 0)
(0.998659 0.00107351 0)
(0.998654 -0.00257436 0)
(0.994668 0.000405669 0)
(0.996556 3.72945e-05 0)
(0.996578 0.00129289 0)
(0.995202 0.00055305 0)
(0.993412 0.000297778 0)
(0.993861 0.00487896 0)
(0.994703 0.00316649 0)
(0.993606 0.00704315 0)
(0.995249 0.00792206 0)
(0.996513 0.0079553 0)
(0.996218 0.0109181 0)
(0.997924 0.000851114 0)
(1.00152 0.00229606 0)
(1.00507 -0.000110735 0)
(0.997761 -0.0063488 0)
(0.995805 0.00173343 0)
(0.999183 -0.00199947 0)
(0.99623 0.00128364 0)
(0.998573 0.00109115 0)
(0.998671 -0.00251523 0)
(0.994766 0.000487663 0)
(0.996614 1.65996e-05 0)
(0.996616 0.0012743 0)
(0.995191 0.000664706 0)
(0.993632 0.00041829 0)
(0.994011 0.00474408 0)
(0.994845 0.00339487 0)
(0.993883 0.00678545 0)
(0.995329 0.00806935 0)
(0.99672 0.00796718 0)
(0.996491 0.0106315 0)
(0.997978 0.000861177 0)
(1.00149 0.00217919 0)
(1.0049 -7.05729e-05 0)
(0.997803 -0.00612832 0)
(0.995903 0.00165213 0)
(0.999194 -0.00191413 0)
(0.996327 0.00118225 0)
(0.998493 0.00112294 0)
(0.998695 -0.00246804 0)
(0.994872 0.000576238 0)
(0.996673 4.54353e-07 0)
(0.996664 0.00124636 0)
(0.995182 0.000794588 0)
(0.993851 0.000518447 0)
(0.994178 0.00462328 0)
(0.994989 0.00361907 0)
(0.994175 0.00653839 0)
(0.995435 0.00817495 0)
(0.996912 0.00800615 0)
(0.996777 0.0103257 0)
(0.998033 0.000871715 0)
(1.00146 0.00205953 0)
(1.00474 -3.2069e-05 0)
(0.997845 -0.00589916 0)
(0.996001 0.00156411 0)
(0.999207 -0.00181669 0)
(0.99643 0.00106848 0)
(0.998416 0.00116637 0)
(0.998723 -0.00242767 0)
(0.994983 0.00066654 0)
(0.996731 -2.50894e-06 0)
(0.99672 0.00119683 0)
(0.995177 0.000947401 0)
(0.994067 0.000610249 0)
(0.994361 0.00450928 0)
(0.995131 0.00384467 0)
(0.994477 0.00631139 0)
(0.995567 0.00822611 0)
(0.997087 0.00806774 0)
(0.997066 0.0100065 0)
(0.998088 0.000882673 0)
(1.00144 0.00193751 0)
(1.00457 3.54455e-06 0)
(0.997887 -0.00565954 0)
(0.9961 0.0014677 0)
(0.999221 -0.00170586 0)
(0.996539 0.000942839 0)
(0.998339 0.00122029 0)
(0.998754 -0.00239271 0)
(0.9951 0.000752568 0)
(0.996786 1.3599e-05 0)
(0.996789 0.00111853 0)
(0.995177 0.00112115 0)
(0.99428 0.000696434 0)
(0.994563 0.00439385 0)
(0.995273 0.00407821 0)
(0.994783 0.00611674 0)
(0.995725 0.00821386 0)
(0.997244 0.00815327 0)
(0.997352 0.00969721 0)
(0.998143 0.000893745 0)
(1.00141 0.00181413 0)
(1.00441 3.51118e-05 0)
(0.99793 -0.00540892 0)
(0.9962 0.0013627 0)
(0.999234 -0.00158141 0)
(0.996653 0.000806129 0)
(0.998265 0.00128179 0)
(0.998787 -0.00236127 0)
(0.995224 0.00082472 0)
(0.996837 5.68328e-05 0)
(0.99687 0.00101476 0)
(0.995185 0.00130165 0)
(0.994486 0.000791828 0)
(0.994785 0.00426048 0)
(0.995415 0.00431527 0)
(0.995088 0.00596517 0)
(0.995912 0.00813503 0)
(0.997389 0.00824687 0)
(0.997627 0.00941315 0)
(0.998199 0.000904457 0)
(1.00139 0.00169056 0)
(1.00425 6.26709e-05 0)
(0.997973 -0.00514835 0)
(0.996302 0.00124816 0)
(0.999247 -0.00144436 0)
(0.996773 0.000659841 0)
(0.998194 0.00134708 0)
(0.998822 -0.00232501 0)
(0.995356 0.000875076 0)
(0.996884 0.000133276 0)
(0.996965 0.000893781 0)
(0.995205 0.00148192 0)
(0.994682 0.000913769 0)
(0.995028 0.00410473 0)
(0.995565 0.00454244 0)
(0.995384 0.00586042 0)
(0.996126 0.0079959 0)
(0.997527 0.00832405 0)
(0.997883 0.00916935 0)
(0.998255 0.00091498 0)
(1.00136 0.0015671 0)
(1.00409 8.44774e-05 0)
(0.998016 -0.00487542 0)
(0.996407 0.00112423 0)
(0.99926 -0.00129502 0)
(0.996897 0.00050896 0)
(0.998127 0.0014109 0)
(0.998857 -0.00227278 0)
(0.995498 0.000895193 0)
(0.996927 0.000240886 0)
(0.997071 0.000764848 0)
(0.995242 0.00165165 0)
(0.994867 0.00106774 0)
(0.995291 0.00394129 0)
(0.995726 0.0047484 0)
(0.995668 0.0058029 0)
(0.996365 0.00781249 0)
(0.997667 0.00836656 0)
(0.998115 0.00898212 0)
(0.998313 0.000924554 0)
(1.00134 0.00144579 0)
(1.00393 9.76222e-05 0)
(0.998059 -0.00458862 0)
(0.996516 0.00099105 0)
(0.999271 -0.00113511 0)
(0.997026 0.000357668 0)
(0.998066 0.00146707 0)
(0.998891 -0.00220011 0)
(0.995649 0.000881497 0)
(0.996966 0.00037842 0)
(0.997189 0.000636936 0)
(0.995299 0.00179247 0)
(0.995041 0.00125894 0)
(0.995572 0.0037812 0)
(0.995903 0.00492011 0)
(0.995935 0.00579431 0)
(0.996622 0.0076037 0)
(0.997818 0.00835672 0)
(0.998319 0.0088545 0)
(0.998371 0.000932404 0)
(1.00132 0.00132976 0)
(1.00378 0.000100745 0)
(0.9981 -0.00428961 0)
(0.996629 0.000848698 0)
(0.999283 -0.00096617 0)
(0.997157 0.000207649 0)
(0.998012 0.00151136 0)
(0.998924 -0.00210144 0)
(0.995812 0.000833756 0)
(0.997004 0.000536737 0)
(0.997315 0.00052678 0)
(0.995382 0.00189687 0)
(0.995205 0.00148386 0)
(0.995864 0.00363419 0)
(0.996103 0.00504354 0)
(0.996186 0.00582439 0)
(0.996889 0.00738576 0)
(0.997988 0.00827803 0)
(0.998499 0.00877285 0)
(0.998431 0.000939042 0)
(1.0013 0.00121695 0)
(1.00364 9.33185e-05 0)
(0.998141 -0.00397661 0)
(0.996746 0.000700308 0)
(0.999297 -0.000794572 0)
(0.99729 6.86629e-05 0)
(0.997966 0.00153644 0)
(0.998953 -0.00197104 0)
(0.995985 0.000758879 0)
(0.997042 0.000702407 0)
(0.997446 0.000446071 0)
(0.995492 0.00196897 0)
(0.995362 0.00172987 0)
(0.996164 0.00350856 0)
(0.996327 0.00511167 0)
(0.996422 0.00587911 0)
(0.997157 0.00718248 0)
(0.998182 0.00813151 0)
(0.998667 0.00869969 0)
(0.998491 0.000942677 0)
(1.00127 0.0011105 0)
(1.0035 7.30891e-05 0)
(0.998179 -0.00364971 0)
(0.996867 0.000548776 0)
(0.999312 -0.000624753 0)
(0.997425 -5.38375e-05 0)
(0.997931 0.00153164 0)
(0.99898 -0.00181022 0)
(0.996169 0.0006684 0)
(0.997082 0.000866637 0)
(0.997579 0.000405439 0)
(0.995632 0.00201536 0)
(0.995516 0.00199012 0)
(0.996464 0.00341542 0)
(0.996579 0.00512718 0)
(0.99665 0.00594137 0)
(0.997417 0.00700892 0)
(0.998399 0.0079369 0)
(0.99884 0.00859402 0)
(0.998552 0.000942482 0)
(1.00125 0.00101633 0)
(1.00337 3.54563e-05 0)
(0.998217 -0.00331082 0)
(0.99699 0.000398316 0)
(0.999331 -0.000460088 0)
(0.99756 -0.00015028 0)
(0.997908 0.00149238 0)
(0.999004 -0.00162329 0)
(0.996361 0.000570583 0)
(0.997129 0.00101778 0)
(0.997713 0.000407044 0)
(0.9958 0.00204201 0)
(0.99567 0.00225117 0)
(0.996758 0.00335999 0)
(0.996857 0.0050993 0)
(0.996875 0.00599439 0)
(0.997663 0.00686225 0)
(0.998633 0.00771559 0)
(0.999032 0.0084296 0)
(0.998614 0.000939277 0)
(1.00123 0.000931338 0)
(1.00326 -1.90088e-05 0)
(0.998253 -0.00296314 0)
(0.997115 0.000255084 0)
(0.999355 -0.000311581 0)
(0.997693 -0.0002175 0)
(0.997897 0.00142225 0)
(0.999028 -0.00142226 0)
(0.996562 0.000479694 0)
(0.997183 0.00114391 0)
(0.997846 0.000441311 0)
(0.995995 0.00205562 0)
(0.995828 0.002497 0)
(0.997044 0.00333199 0)
(0.997157 0.00503301 0)
(0.997103 0.00603076 0)
(0.997892 0.00674285 0)
(0.998872 0.00749403 0)
(0.999251 0.00821033 0)
(0.998678 0.000930641 0)
(1.00121 0.000860865 0)
(1.00315 -9.43931e-05 0)
(0.998289 -0.00261272 0)
(0.99724 0.000124837 0)
(0.999384 -0.000186153 0)
(0.997823 -0.000244696 0)
(0.997899 0.00132015 0)
(0.999053 -0.00121307 0)
(0.996769 0.000409745 0)
(0.997248 0.00124717 0)
(0.99798 0.000509754 0)
(0.996216 0.00206913 0)
(0.995992 0.00272376 0)
(0.997317 0.00332515 0)
(0.997478 0.00493427 0)
(0.99734 0.00604586 0)
(0.998107 0.00664315 0)
(0.999107 0.00728574 0)
(0.999493 0.00796146 0)
(0.998742 0.000916269 0)
(1.00118 0.000807065 0)
(1.00305 -0.000187398 0)
(0.998326 -0.00226477 0)
(0.997364 1.67014e-05 0)
(0.99942 -9.00482e-05 0)
(0.99795 -0.000228113 0)
(0.997914 0.00119798 0)
(0.999082 -0.00101236 0)
(0.99698 0.000369829 0)
(0.997325 0.00133182 0)
(0.998114 0.000604337 0)
(0.996459 0.00208802 0)
(0.996163 0.0029322 0)
(0.997575 0.00334105 0)
(0.997816 0.00480911 0)
(0.997592 0.00603774 0)
(0.998308 0.00655947 0)
(0.999334 0.00709116 0)
(0.999749 0.00771209 0)
(0.998807 0.000895642 0)
(1.00116 0.000770646 0)
(1.00296 -0.000293474 0)
(0.998366 -0.00192584 0)
(0.997484 -6.25961e-05 0)
(0.999463 -2.94424e-05 0)
(0.998073 -0.000174497 0)
(0.997939 0.00106941 0)
(0.999118 -0.000832031 0)
(0.997196 0.00036264 0)
(0.997414 0.00140236 0)
(0.99825 0.000707478 0)
(0.996724 0.00210248 0)
(0.996343 0.00312151 0)
(0.997814 0.00338356 0)
(0.998167 0.00466207 0)
(0.997863 0.00600072 0)
(0.998499 0.006497 0)
(0.99955 0.00690361 0)
(1.00001 0.00747271 0)
(0.998873 0.00086817 0)
(1.00113 0.000752009 0)
(1.00289 -0.000412578 0)
(0.998409 -0.00160713 0)
(0.9976 -0.000105395 0)
(0.999516 -5.81508e-06 0)
(0.998193 -8.65343e-05 0)
(0.997971 0.000949933 0)
(0.999163 -0.000678433 0)
(0.997416 0.000383255 0)
(0.997513 0.00146837 0)
(0.998387 0.000814391 0)
(0.997009 0.00210496 0)
(0.996536 0.00328472 0)
(0.998031 0.00345249 0)
(0.998524 0.00449992 0)
(0.998161 0.00592011 0)
(0.998682 0.00645764 0)
(0.999751 0.00672495 0)
(1.00026 0.00723669 0)
(0.998939 0.000834017 0)
(1.00109 0.000749038 0)
(1.00282 -0.000538044 0)
(0.998458 -0.00131576 0)
(0.997708 -0.000106612 0)
(0.999577 -1.53201e-05 0)
(0.998312 2.27264e-05 0)
(0.998008 0.000862488 0)
(0.999218 -0.000560463 0)
(0.997642 0.000427228 0)
(0.997622 0.00153811 0)
(0.998523 0.000921498 0)
(0.997312 0.00209169 0)
(0.996745 0.00341561 0)
(0.998225 0.00355003 0)
(0.998879 0.00434323 0)
(0.99849 0.0057825 0)
(0.998865 0.00642764 0)
(0.999931 0.00657316 0)
(1.00051 0.00699927 0)
(0.999006 0.000792092 0)
(1.00106 0.00076517 0)
(1.00277 -0.000666326 0)
(0.998515 -0.00105962 0)
(0.997807 -6.67092e-05 0)
(0.999646 -4.88993e-05 0)
(0.998432 0.000136307 0)
(0.998045 0.000815643 0)
(0.999282 -0.000466978 0)
(0.997877 0.000480873 0)
(0.997739 0.00162371 0)
(0.998654 0.0010326 0)
(0.997629 0.00205638 0)
(0.996977 0.00350369 0)
(0.998397 0.00366903 0)
(0.999218 0.00421729 0)
(0.99885 0.0055958 0)
(0.99906 0.00638182 0)
(1.00009 0.00646426 0)
(1.00075 0.00676774 0)
(0.999074 0.000744023 0)
(1.00101 0.000798738 0)
(1.00272 -0.000794816 0)
(0.998583 -0.000844553 0)
(0.997897 1.51044e-05 0)
(0.99972 -9.77233e-05 0)
(0.998557 0.000239695 0)
(0.998082 0.000811682 0)
(0.999353 -0.000385167 0)
(0.998122 0.000527477 0)
(0.997866 0.00172578 0)
(0.998776 0.00115626 0)
(0.997956 0.00200541 0)
(0.997237 0.00354553 0)
(0.998555 0.0037944 0)
(0.99953 0.00413079 0)
(0.999235 0.00537804 0)
(0.999281 0.0062937 0)
(1.00023 0.00639013 0)
(1.00096 0.00655635 0)
(0.999142 0.000688068 0)
(1.00096 0.000850454 0)
(1.00267 -0.000917834 0)
(0.998663 -0.000671403 0)
(0.997976 0.000130861 0)
(0.999796 -0.000149075 0)
(0.998689 0.000322048 0)
(0.998117 0.000852809 0)
(0.999425 -0.00030709 0)
(0.99838 0.00055391 0)
(0.998004 0.00183132 0)
(0.998886 0.00129831 0)
(0.998285 0.00195232 0)
(0.997527 0.00354319 0)
(0.998707 0.00391326 0)
(0.999809 0.00408375 0)
(0.999631 0.0051523 0)
(0.999537 0.0061566 0)
(1.00035 0.00633092 0)
(1.00114 0.00638549 0)
(0.999209 0.000625763 0)
(1.0009 0.000917237 0)
(1.00263 -0.00102819 0)
(0.998757 -0.000545888 0)
(0.998046 0.000270581 0)
(0.99987 -0.000190227 0)
(0.998832 0.000375807 0)
(0.99815 0.000929339 0)
(0.999494 -0.000219351 0)
(0.998649 0.00055044 0)
(0.998159 0.00192492 0)
(0.998981 0.00146714 0)
(0.998609 0.00190891 0)
(0.997848 0.00349284 0)
(0.998861 0.00401046 0)
(1.00005 0.00407116 0)
(1.00002 0.00493509 0)
(0.999831 0.00597463 0)
(1.00049 0.00626063 0)
(1.00128 0.00626089 0)
(0.999277 0.000558369 0)
(1.00083 0.000994716 0)
(1.00259 -0.00112141 0)
(0.998866 -0.000469128 0)
(0.998107 0.000424319 0)
(0.999937 -0.000210618 0)
(0.998984 0.000398572 0)
(0.998185 0.00102873 0)
(0.999551 -0.00010584 0)
(0.998927 0.000525889 0)
(0.998337 0.00199263 0)
(0.999063 0.00166446 0)
(0.998915 0.00189484 0)
(0.998195 0.00340073 0)
(0.999028 0.00407479 0)
(1.00026 0.00408701 0)
(1.0004 0.00473785 0)
(1.00016 0.00575637 0)
(1.00064 0.00615737 0)
(1.0014 0.00616336 0)
(0.999344 0.00048749 0)
(1.00076 0.00107198 0)
(1.00254 -0.00118662 0)
(0.99899 -0.000437364 0)
(0.998164 0.000581218 0)
(0.999993 -0.000202328 0)
(0.999147 0.000388008 0)
(0.998224 0.00113949 0)
(0.999592 3.94526e-05 0)
(0.999205 0.000498769 0)
(0.998541 0.0020226 0)
(0.999137 0.00186747 0)
(0.999193 0.00192012 0)
(0.99856 0.0032823 0)
(0.999216 0.00409803 0)
(1.00043 0.00412387 0)
(1.00075 0.00457112 0)
(1.00051 0.00551675 0)
(1.00082 0.0060173 0)
(1.0015 0.00607185 0)
(0.999409 0.000417111 0)
(1.00068 0.00114363 0)
(1.00248 -0.00121765 0)
(0.999127 -0.000445301 0)
(0.998218 0.000730206 0)
(1.00003 -0.000156753 0)
(0.999318 0.000350601 0)
(0.998273 0.00124387 0)
(0.999615 0.000216766 0)
(0.999476 0.000480959 0)
(0.998773 0.00200969 0)
(0.999211 0.00205366 0)
(0.999438 0.00198084 0)
(0.998932 0.00315772 0)
(0.999431 0.00407253 0)
(1.00058 0.00416684 0)
(1.00106 0.00444101 0)
(1.00087 0.00526581 0)
(1.00104 0.00584055 0)
(1.00161 0.00596562 0)
(0.999473 0.000347012 0)
(1.00059 0.0012067 0)
(1.00241 -0.00120488 0)
(0.999276 -0.000489531 0)
(0.998275 0.000857127 0)
(1.00006 -7.34056e-05 0)
(0.999493 0.000304928 0)
(0.998336 0.00132853 0)
(0.999619 0.000422762 0)
(0.999729 0.000483515 0)
(0.999029 0.00196024 0)
(0.999293 0.00221414 0)
(0.999648 0.00206727 0)
(0.999299 0.00304454 0)
(0.999676 0.00400675 0)
(1.00072 0.00420003 0)
(1.00132 0.00435506 0)
(1.00122 0.00501996 0)
(1.00129 0.00562955 0)
(1.00174 0.00583045 0)
(0.999534 0.000281811 0)
(1.0005 0.00125057 0)
(1.00232 -0.00114131 0)
(0.999433 -0.000564298 0)
(0.998339 0.000951773 0)
(1.00006 4.06257e-05 0)
(0.999668 0.000258559 0)
(0.998417 0.0013834 0)
(0.999607 0.000647528 0)
(0.999955 0.000526636 0)
(0.999304 0.00189295 0)
(0.999389 0.00233819 0)
(0.999825 0.00216872 0)
(0.999649 0.00294054 0)
(0.999945 0.00390848 0)
(1.00086 0.00420681 0)
(1.00153 0.00430382 0)
(1.00155 0.0048016 0)
(1.00157 0.00539309 0)
(1.00189 0.00566576 0)
(0.999594 0.000223444 0)
(1.00041 0.00127133 0)
(1.00222 -0.00103146 0)
(0.999593 -0.000653756 0)
(0.998415 0.00100118 0)
(1.00005 0.000185624 0)
(0.999836 0.000224227 0)
(0.998519 0.00139879 0)
(0.999588 0.000867947 0)
(1.00015 0.000610791 0)
(0.999589 0.00182408 0)
(0.999503 0.00242322 0)
(0.999972 0.00228202 0)
(0.999975 0.00285238 0)
(1.00023 0.00378259 0)
(1.00101 0.00418639 0)
(1.00171 0.00427056 0)
(1.00185 0.00462276 0)
(1.00185 0.00514472 0)
(1.00206 0.00546986 0)
(0.999651 0.000171947 0)
(1.00032 0.00126961 0)
(1.0021 -0.000889457 0)
(0.999749 -0.000738776 0)
(0.998509 0.00100031 0)
(1.00003 0.000350808 0)
(0.999991 0.000218936 0)
(0.998642 0.00137906 0)
(0.999568 0.00107069 0)
(1.00031 0.000725103 0)
(0.999875 0.00176448 0)
(0.999638 0.00247725 0)
(1.00009 0.00239564 0)
(1.00027 0.00278949 0)
(1.00054 0.00363629 0)
(1.00118 0.0041353 0)
(1.00186 0.004248 0)
(1.00209 0.00448514 0)
(1.00213 0.00490772 0)
(1.00226 0.00525132 0)
(0.999705 0.00013002 0)
(1.00023 0.00124267 0)
(1.00197 -0.00072929 0)
(0.999898 -0.000801494 0)
(0.998621 0.000955615 0)
(0.999996 0.00051473 0)
(1.00013 0.000253393 0)
(0.998782 0.00134775 0)
(0.999556 0.00123896 0)
(1.00044 0.000856661 0)
(1.00015 0.00171932 0)
(0.999792 0.00250919 0)
(1.00019 0.00250252 0)
(1.00052 0.00274932 0)
(1.00084 0.00347792 0)
(1.00138 0.00404032 0)
(1.002 0.00421889 0)
(1.0023 0.00438342 0)
(1.00238 0.00469684 0)
(1.00247 0.00502064 0)
(0.999755 9.6543e-05 0)
(1.00016 0.00119615 0)
(1.00182 -0.000562225 0)
(1.00003 -0.000828068 0)
(0.998752 0.000877101 0)
(0.999969 0.000657436 0)
(1.00024 0.000324982 0)
(0.998931 0.00131944 0)
(0.999553 0.00136902 0)
(1.00054 0.000988089 0)
(1.00042 0.00169091 0)
(0.999966 0.00252516 0)
(1.00028 0.00260666 0)
(1.00072 0.00273538 0)
(1.00114 0.00332041 0)
(1.0016 0.00390889 0)
(1.00214 0.00416324 0)
(1.00246 0.00430997 0)
(1.0026 0.00452318 0)
(1.00268 0.00479057 0)
(0.999802 7.15705e-05 0)
(1.00009 0.00113293 0)
(1.00167 -0.000398609 0)
(1.00015 -0.000810408 0)
(0.998898 0.000780253 0)
(0.99995 0.000762443 0)
(1.00034 0.000415127 0)
(0.999086 0.00130301 0)
(0.999561 0.00147835 0)
(1.00063 0.00110806 0)
(1.00068 0.00166899 0)
(1.00016 0.00252563 0)
(1.00036 0.0027038 0)
(1.00088 0.00274943 0)
(1.00141 0.0031749 0)
(1.00184 0.00374839 0)
(1.0023 0.0040729 0)
(1.00259 0.00424228 0)
(1.00277 0.00439432 0)
(1.00287 0.00458575 0)
(0.999846 5.4213e-05 0)
(1.00004 0.0010563 0)
(1.00153 -0.00024471 0)
(1.00025 -0.00075664 0)
(0.999053 0.000682101 0)
(0.999945 0.00082784 0)
(1.00043 0.000509989 0)
(0.999242 0.00130741 0)
(0.999577 0.00157363 0)
(1.00068 0.00122028 0)
(1.00093 0.00163671 0)
(1.00037 0.00250708 0)
(1.00044 0.00279564 0)
(1.00099 0.00279177 0)
(1.00164 0.00306071 0)
(1.00209 0.00356416 0)
(1.00248 0.00394401 0)
(1.00273 0.00415098 0)
(1.00291 0.00428755 0)
(1.00302 0.00441476 0)
(0.999886 4.42979e-05 0)
(0.999993 0.000972079 0)
(1.00138 -0.000106997 0)
(1.00033 -0.000672712 0)
(0.999211 0.000592547 0)
(0.999955 0.00086072 0)
(1.00052 0.000596614 0)
(0.999402 0.00132379 0)
(0.999601 0.00166843 0)
(1.00072 0.00133574 0)
(1.00116 0.00159569 0)
(1.00061 0.00245416 0)
(1.00053 0.00287067 0)
(1.00106 0.00286117 0)
(1.00182 0.00298713 0)
(1.00234 0.00338214 0)
(1.00268 0.00378018 0)
(1.00287 0.00403435 0)
(1.00302 0.00418014 0)
(1.00314 0.00427536 0)
(0.999922 3.86528e-05 0)
(0.999958 0.000886635 0)
(1.00124 9.24372e-06 0)
(1.00039 -0.000564431 0)
(0.999367 0.000523082 0)
(0.99998 0.000868132 0)
(1.0006 0.000663393 0)
(0.999567 0.00134063 0)
(0.999635 0.00176624 0)
(1.00073 0.00145971 0)
(1.00136 0.00156073 0)
(1.00088 0.00235634 0)
(1.00065 0.00290882 0)
(1.0011 0.00295326 0)
(1.00195 0.00295554 0)
(1.00255 0.00322438 0)
(1.0029 0.0035907 0)
(1.00304 0.00388683 0)
(1.00314 0.00405658 0)
(1.00324 0.004145 0)
(0.999954 3.6474e-05 0)
(0.999932 0.000806333 0)
(1.00111 0.000104679 0)
(1.00044 -0.000445929 0)
(0.999518 0.000483619 0)
(1.00002 0.000864706 0)
(1.00069 0.00070206 0)
(0.999744 0.00135283 0)
(0.999684 0.00185387 0)
(1.00072 0.00160014 0)
(1.00153 0.0015513 0)
(1.00116 0.00222064 0)
(1.00082 0.0028896 0)
(1.00114 0.00304051 0)
(1.00201 0.0029741 0)
(1.00273 0.00310297 0)
(1.00311 0.00339911 0)
(1.00322 0.00370775 0)
(1.00327 0.00391337 0)
(1.00332 0.0040078 0)
(0.999982 3.60691e-05 0)
(0.999916 0.000735813 0)
(1.001 0.000180056 0)
(1.00048 -0.000324242 0)
(0.999661 0.000470874 0)
(1.00006 0.000862677 0)
(1.00077 0.000722331 0)
(0.999935 0.00134722 0)
(0.999754 0.00193005 0)
(1.00069 0.00174879 0)
(1.00164 0.00158056 0)
(1.00145 0.00207612 0)
(1.00104 0.00279826 0)
(1.00119 0.0030909 0)
(1.00203 0.00302781 0)
(1.00284 0.00302955 0)
(1.00331 0.00322721 0)
(1.00342 0.00350832 0)
(1.00341 0.0037463 0)
(1.00341 0.0038612 0)
(1.00001 3.48179e-05 0)
(0.999905 0.000679309 0)
(1.00089 0.000237924 0)
(1.00052 -0.000209607 0)
(0.999796 0.000484427 0)
(1.0001 0.000867463 0)
(1.00086 0.000736704 0)
(1.00014 0.00130816 0)
(0.999851 0.00198464 0)
(1.00065 0.00189471 0)
(1.00171 0.00164795 0)
(1.00171 0.00196177 0)
(1.00131 0.00264345 0)
(1.00128 0.0030807 0)
(1.00202 0.00307975 0)
(1.00289 0.00300651 0)
(1.00346 0.00309319 0)
(1.00362 0.00330937 0)
(1.00358 0.00355197 0)
(1.0035 0.00370103 0)
(1.00003 3.59987e-05 0)
(0.999898 0.000630407 0)
(1.0008 0.000287952 0)
(1.00054 -0.000111251 0)
(0.999922 0.000512998 0)
(1.00014 0.000898394 0)
(1.00094 0.000754832 0)
(1.00036 0.00124536 0)
(0.999985 0.00199391 0)
(1.00061 0.00202873 0)
(1.00172 0.00174562 0)
(1.00192 0.00189178 0)
(1.00159 0.00246592 0)
(1.00144 0.00299301 0)
(1.00202 0.00310201 0)
(1.00289 0.00300935 0)
(1.00355 0.00300484 0)
(1.00379 0.00313816 0)
(1.00376 0.00334352 0)
(1.00361 0.00352233 0)
(1.00004 3.81571e-05 0)
(0.999895 0.000588106 0)
(1.00072 0.000335629 0)
(1.00057 -2.23067e-05 0)
(1.00005 0.000541149 0)
(1.00017 0.000950661 0)
(1.001 0.000791852 0)
(1.00058 0.00117444 0)
(1.00016 0.00195439 0)
(1.00059 0.0021326 0)
(1.0017 0.00186452 0)
(1.00208 0.00186374 0)
(1.00188 0.00230737 0)
(1.00165 0.00284093 0)
(1.00206 0.00307126 0)
(1.00286 0.00300788 0)
(1.00358 0.00294647 0)
(1.00391 0.00300702 0)
(1.00393 0.00314723 0)
(1.00375 0.00332451 0)
(1.00006 4.25787e-05 0)
(0.999895 0.00054958 0)
(1.00064 0.000382063 0)
(1.00059 6.06169e-05 0)
(1.00017 0.000563109 0)
(1.00021 0.00100496 0)
(1.00103 0.00086226 0)
(1.00078 0.00111012 0)
(1.00036 0.00186758 0)
(1.00061 0.00219046 0)
(1.00165 0.00198555 0)
(1.00217 0.0018817 0)
(1.00213 0.00217957 0)
(1.00189 0.00266227 0)