/*--------------------------------*- C++ -*----------------------------------*\
| =========                 |                                                 |
| \\      /  F ield         | OpenFOAM: The Open Source CFD Toolbox           |
|  \\    /   O peration     | Version:  2106                                  |
|   \\  /    A nd           | Website:  www.openfoam.com                      |
|    \\/     M anipulation  |                                                 |
\*---------------------------------------------------------------------------*/
FoamFile
{
    version     2.0;
    format      ascii;
    arch        "LSB;label=32;scalar=64";
    class       volVectorField;
    location    "0.99";
    object      U;
}
// * * * * * * * * * * * * * * * * * * * * * * * * * * * * * * * * * * * * * //

dimensions      [0 1 -1 0 0 0 0];

internalField   nonuniform List<vector> 
9600
(
(0.871934 -0.00669484 0)
(1.14069 0.000851451 0)
(0.844111 0.0011554 0)
(1.14649 0.00335416 0)
(0.871812 -0.00484381 0)
(1.16375 0.00207353 0)
(0.932389 0.00222087 0)
(1.12206 0.00103846 0)
(0.920384 0.00480898 0)
(1.10322 -0.00239685 0)
(0.901408 0.00568795 0)
(1.132 -0.0108699 0)
(0.877699 -0.00499658 0)
(1.16255 -0.00772193 0)
(0.872158 -0.00562871 0)
(1.17377 -0.00125842 0)
(0.891158 -0.00140512 0)
(1.16357 0.00129232 0)
(0.887581 0.00372894 0)
(1.15202 0.00575262 0)
(0.882547 -0.00685583 0)
(1.13249 0.00116601 0)
(0.860764 0.000951046 0)
(1.13525 0.00330772 0)
(0.892305 -0.00520358 0)
(1.15133 0.00161334 0)
(0.951373 0.00247439 0)
(1.10829 0.00141256 0)
(0.942544 0.00484317 0)
(1.08289 -0.00182859 0)
(0.93084 0.00492044 0)
(1.097 -0.0101323 0)
(0.914743 -0.00597883 0)
(1.11621 -0.00738572 0)
(0.92454 -0.00622817 0)
(1.11488 -0.00161158 0)
(0.963511 -0.00105956 0)
(1.08381 0.000875243 0)
(0.989463 0.00527981 0)
(1.03483 0.00476034 0)
(0.900038 -0.00700638 0)
(1.11474 0.00142125 0)
(0.891429 0.000780949 0)
(1.11381 0.00320514 0)
(0.92453 -0.00553527 0)
(1.12641 0.00119561 0)
(0.981484 0.0028231 0)
(1.08531 0.00166315 0)
(0.975584 0.00503497 0)
(1.05646 -0.00156437 0)
(0.969387 0.00461536 0)
(1.05881 -0.00978926 0)
(0.959858 -0.00638397 0)
(1.06546 -0.00757425 0)
(0.979611 -0.00615329 0)
(1.06047 -0.00253398 0)
(1.01427 -0.00038845 0)
(1.04177 0.000503828 0)
(1.02366 0.00597653 0)
(1.02045 0.00573892 0)
(0.921444 -0.00712024 0)
(1.08929 0.00150931 0)
(0.927629 0.000690628 0)
(1.08654 0.00305188 0)
(0.957245 -0.00574317 0)
(1.09504 0.000774596 0)
(1.00928 0.00314929 0)
(1.06161 0.00181373 0)
(1.00364 0.00530119 0)
(1.03541 -0.0014057 0)
(0.998579 0.00456497 0)
(1.03111 -0.00959016 0)
(0.988709 -0.00643849 0)
(1.03259 -0.00799207 0)
(1.00766 -0.00604201 0)
(1.03514 -0.00329063 0)
(1.02991 -0.000132403 0)
(1.03473 0.000486983 0)
(1.02889 0.00628063 0)
(1.02633 0.00680775 0)
(0.943322 -0.00718317 0)
(1.06113 0.00144771 0)
(0.960188 0.000645745 0)
(1.05951 0.00289587 0)
(0.981789 -0.00586813 0)
(1.06488 0.000318553 0)
(1.02581 0.0034102 0)
(1.04282 0.00194456 0)
(1.0191 0.00556073 0)
(1.02269 -0.00126542 0)
(1.01322 0.00462305 0)
(1.01549 -0.00934249 0)
(0.999848 -0.0064402 0)
(1.01572 -0.00838364 0)
(1.01429 -0.00611493 0)
(1.02517 -0.0038556 0)
(1.03002 -0.000172048 0)
(1.03315 0.000509421 0)
(1.03018 0.00647107 0)
(1.02844 0.00761602 0)
(0.962563 -0.00718669 0)
(1.03584 0.00128511 0)
(0.983336 0.000616879 0)
(1.03758 0.00278107 0)
(0.995636 -0.00594471 0)
(1.04071 -9.69645e-05 0)
(1.03 0.00358252 0)
(1.02944 0.00206961 0)
(1.02314 0.00576495 0)
(1.01549 -0.00113153 0)
(1.0173 0.00473291 0)
(1.00774 -0.00904123 0)
(1.00177 -0.00643477 0)
(1.00671 -0.00868999 0)
(1.01184 -0.00631728 0)
(1.0182 -0.00431136 0)
(1.02507 -0.000378124 0)
(1.02845 0.000445023 0)
(1.02853 0.00651495 0)
(1.02752 0.00826063 0)
(0.977409 -0.00713898 0)
(1.01697 0.00107921 0)
(0.996036 0.0005824 0)
(1.02247 0.00271949 0)
(1.00115 -0.00597779 0)
(1.0234 -0.000429404 0)
(1.02579 0.0036652 0)
(1.01956 0.00217635 0)
(1.02039 0.005902 0)
(1.01066 -0.00101476 0)
(1.01621 0.00484604 0)
(1.00426 -0.00872217 0)
(1.00108 -0.00638919 0)
(1.00141 -0.00892297 0)
(1.00721 -0.00653082 0)
(1.01139 -0.00470048 0)
(1.0182 -0.000690875 0)
(1.02147 0.000380631 0)
(1.02352 0.00637597 0)
(1.02399 0.00875434 0)
(0.987658 -0.00705863 0)
(1.00512 0.000881439 0)
(1.00064 0.000535456 0)
(1.01326 0.00269705 0)
(1.00217 -0.00596677 0)
(1.01163 -0.000676505 0)
(1.01805 0.00368491 0)
(1.01176 0.00225267 0)
(1.01499 0.00597654 0)
(1.0069 -0.000930997 0)
(1.01345 0.00491937 0)
(1.00314 -0.00841134 0)
(1.00045 -0.0063083 0)
(0.99853 -0.00906266 0)
(1.00297 -0.00669825 0)
(1.00527 -0.00501687 0)
(1.01092 -0.00101293 0)
(1.01378 0.000365255 0)
(1.01649 0.00606939 0)
(1.01824 0.00908895 0)
(0.994129 -0.00696331 0)
(0.998741 0.000722603 0)
(1.00061 0.000479914 0)
(1.00799 0.00268572 0)
(1.00161 -0.00591401 0)
(1.00379 -0.000841819 0)
(1.01023 0.00367309 0)
(1.00568 0.00229277 0)
(1.00948 0.00599634 0)
(1.00404 -0.000890143 0)
(1.0106 0.00493115 0)
(1.00334 -0.00812961 0)
(1.00032 -0.00620579 0)
(0.997373 -0.00908977 0)
(0.99977 -0.00681321 0)
(1.00036 -0.00521481 0)
(1.00428 -0.00131216 0)
(1.00642 0.000391507 0)
(1.0089 0.00566729 0)
(1.01124 0.00931979 0)
(0.99795 -0.00686347 0)
(0.995746 0.000609324 0)
(0.998776 0.000423462 0)
(1.00498 0.00266224 0)
(1.00084 -0.00582383 0)
(0.998702 -0.000936204 0)
(1.00401 0.00364706 0)
(1.00136 0.00229997 0)
(1.00507 0.00596748 0)
(1.00213 -0.000889295 0)
(1.00819 0.00487359 0)
(1.00409 -0.00788463 0)
(1.00043 -0.00608745 0)
(0.997207 -0.0090193 0)
(0.997598 -0.00686629 0)
(0.996715 -0.00525782 0)
(0.998878 -0.00157281 0)
(1.00008 0.000479147 0)
(1.00182 0.00527032 0)
(1.00411 0.00948299 0)
(1.0001 -0.00676283 0)
(0.994484 0.000533131 0)
(0.996791 0.000373381 0)
(1.00317 0.00261736 0)
(1.00025 -0.00570317 0)
(0.995572 -0.000977772 0)
(0.999794 0.00361308 0)
(0.99871 0.00228061 0)
(1.00208 0.00589869 0)
(1.00108 -0.000915083 0)
(1.00631 0.00475328 0)
(1.00487 -0.00766681 0)
(1.0005 -0.00596377 0)
(0.997398 -0.00886948 0)
(0.996214 -0.00686064 0)
(0.994176 -0.00515698 0)
(0.994897 -0.00179213 0)
(0.995114 0.000657389 0)
(0.995966 0.00494728 0)
(0.997797 0.00957118 0)
(1.00125 -0.00666128 0)
(0.994005 0.000481668 0)
(0.995293 0.000332515 0)
(1.00203 0.00255071 0)
(0.999818 -0.00556057 0)
(0.993798 -0.000985405 0)
(0.997319 0.00357272 0)
(0.997386 0.00224089 0)
(1.00035 0.00580246 0)
(1.00066 -0.000952764 0)
(1.00492 0.00458722 0)
(1.00537 -0.00746325 0)
(1.00042 -0.00584623 0)
(0.997559 -0.00864693 0)
(0.995367 -0.00682381 0)
(0.992496 -0.00494605 0)
(0.99226 -0.00196127 0)
(0.991625 0.000914819 0)
(0.991693 0.00473 0)
(0.992955 0.00957668 0)
(1.00184 -0.0065572 0)
(0.993867 0.000443025 0)
(0.99436 0.000301729 0)
(1.00129 0.00246676 0)
(0.999474 -0.00540248 0)
(0.992899 -0.000976767 0)
(0.996085 0.0035263 0)
(0.996938 0.00218645 0)
(0.999513 0.00568945 0)
(1.00059 -0.000989395 0)
(1.00396 0.00439108 0)
(1.00555 -0.00725962 0)
(1.00022 -0.00574068 0)
(0.99755 -0.00836463 0)
(0.994861 -0.00677623 0)
(0.991446 -0.00465592 0)
(0.990712 -0.00206917 0)
(0.989476 0.0012167 0)
(0.988995 0.00463753 0)
(0.989794 0.00950577 0)
(1.0021 -0.00644899 0)
(0.993886 0.000408055 0)
(0.993858 0.000281339 0)
(1.00081 0.00237022 0)
(0.99918 -0.00523293 0)
(0.992515 -0.000964416 0)
(0.995605 0.00347411 0)
(0.996966 0.00212088 0)
(0.999223 0.00556746 0)
(1.00068 -0.00101691 0)
(1.00334 0.00417663 0)
(1.00547 -0.00704323 0)
(0.999979 -0.0056516 0)
(0.997395 -0.00803442 0)
(0.994564 -0.00672947 0)
(0.990844 -0.00430925 0)
(0.98994 -0.00214039 0)
(0.988378 0.00151111 0)
(0.987598 0.00467157 0)
(0.988144 0.00936902 0)
(1.00219 -0.00633548 0)
(0.993981 0.000370693 0)
(0.993628 0.000271621 0)
(1.00048 0.00226406 0)
(0.998933 -0.00505407 0)
(0.992408 -0.00095607 0)
(0.995513 0.00341675 0)
(0.997189 0.00204629 0)
(0.999204 0.00544179 0)
(1.00081 -0.00103267 0)
(1.00296 0.00395004 0)
(1.00525 -0.00680542 0)
(0.999754 -0.00558388 0)
(0.997179 -0.00766187 0)
(0.994402 -0.00669161 0)
(0.990549 -0.00392937 0)
(0.989654 -0.00217297 0)
(0.988 0.00175567 0)
(0.987108 0.00481604 0)
(0.987604 0.00918282 0)
(1.0022 -0.00621589 0)
(0.994107 0.000327328 0)
(0.993552 0.000272597 0)
(1.00026 0.00214994 0)
(0.998735 -0.00486689 0)
(0.992445 -0.00095529 0)
(0.995585 0.00335548 0)
(0.99745 0.0019645 0)
(0.999283 0.00531293 0)
(1.00094 -0.00103465 0)
(1.00273 0.00371295 0)
(1.00497 -0.00653813 0)
(0.999576 -0.0055374 0)
(0.996973 -0.00725687 0)
(0.994335 -0.00665531 0)
(0.99046 -0.00355408 0)
(0.989644 -0.00214336 0)
(0.988053 0.00192437 0)
(0.987156 0.00503788 0)
(0.987736 0.00897016 0)
(1.00216 -0.00608963 0)
(0.994242 0.000275732 0)
(0.993554 0.000284363 0)
(1.0001 0.00202822 0)
(0.998589 -0.00467145 0)
(0.992554 -0.000963391 0)
(0.995704 0.00329205 0)
(0.997677 0.00187721 0)
(0.999365 0.00517823 0)
(1.00103 -0.00102213 0)
(1.00257 0.00346499 0)
(1.00468 -0.00624051 0)
(0.999452 -0.0055092 0)
(0.996814 -0.00682704 0)
(0.994346 -0.00661611 0)
(0.990506 -0.00319155 0)
(0.989779 -0.00205213 0)
(0.988333 0.00200986 0)
(0.98747 0.00529276 0)
(0.98819 0.00875634 0)
(1.00211 -0.00595619 0)
(0.994375 0.000214433 0)
(0.993593 0.000307084 0)
(0.999986 0.00189864 0)
(0.998488 -0.00446781 0)
(0.992703 -0.000980129 0)
(0.995822 0.00322805 0)
(0.997852 0.0017854 0)
(0.999411 0.00503671 0)
(1.00109 -0.000995161 0)
(1.00244 0.00320179 0)
(1.0044 -0.00591312 0)
(0.999377 -0.00549889 0)
(0.996707 -0.00637559 0)
(0.99442 -0.00656757 0)
(0.990642 -0.00285972 0)
(0.989984 -0.00188503 0)
(0.98872 0.00203443 0)
(0.987888 0.00554288 0)
(0.988747 0.00856572 0)
(1.00205 -0.00581528 0)
(0.994504 0.000142708 0)
(0.993648 0.000340543 0)
(0.999903 0.00176095 0)
(0.998422 -0.00425626 0)
(0.992873 -0.00100365 0)
(0.995925 0.00316368 0)
(0.997982 0.00169082 0)
(0.999416 0.00488785 0)
(1.00111 -0.000952639 0)
(1.00231 0.00292084 0)
(1.00413 -0.00556012 0)
(0.99934 -0.00549874 0)
(0.996642 -0.00592015 0)
(0.994542 -0.00648677 0)
(0.990841 -0.00258937 0)
(0.990223 -0.0016442 0)
(0.989155 0.00201844 0)
(0.988334 0.00575723 0)
(0.989298 0.00841732 0)
(1.00199 -0.00566668 0)
(0.994631 6.04106e-05 0)
(0.993708 0.000383966 0)
(0.999836 0.00161568 0)
(0.998379 -0.00403817 0)
(0.993055 -0.0010318 0)
(0.996017 0.00309723 0)
(0.998082 0.00159706 0)
(0.99939 0.00472661 0)
(1.0011 -0.000893249 0)
(1.00218 0.00262549 0)
(1.00386 -0.00519141 0)
(0.999329 -0.00550064 0)
(0.996605 -0.00547988 0)
(0.994694 -0.00635562 0)
(0.991085 -0.00237618 0)
(0.990478 -0.00134773 0)
(0.989611 0.00198073 0)
(0.988786 0.00591301 0)
(0.989803 0.00831798 0)
(1.00193 -0.00551022 0)
(0.994758 -3.28423e-05 0)
(0.993771 0.000437788 0)
(0.99978 0.0014626 0)
(0.998349 -0.00381345 0)
(0.993243 -0.0010626 0)
(0.996102 0.00302949 0)
(0.998162 0.00150763 0)
(0.999345 0.00455009 0)
(1.00108 -0.000814218 0)
(1.00205 0.00231836 0)
(1.0036 -0.00481019 0)
(0.999334 -0.00549818 0)
(0.996587 -0.00506179 0)
(0.994862 -0.00616956 0)
(0.991364 -0.00220511 0)
(0.990741 -0.00101194 0)
(0.990078 0.00194376 0)
(0.989243 0.00600122 0)
(0.990258 0.00826687 0)
(1.00187 -0.00534576 0)
(0.994887 -0.00013739 0)
(0.993836 0.000502628 0)
(0.999729 0.00130141 0)
(0.998329 -0.00358319 0)
(0.993434 -0.00109749 0)
(0.996185 0.00295924 0)
(0.998233 0.00142364 0)
(0.999293 0.00435586 0)
(1.00104 -0.000717453 0)
(1.00192 0.00200302 0)
(1.00333 -0.00442636 0)
(0.999348 -0.00547891 0)
(0.996582 -0.00467284 0)
(0.995034 -0.00593362 0)
(0.991672 -0.00207449 0)
(0.991008 -0.000655262 0)
(0.990548 0.00192218 0)
(0.989712 0.00601624 0)
(0.990672 0.0082552 0)
(1.00181 -0.00517329 0)
(0.995019 -0.000253022 0)
(0.993902 0.000577163 0)
(0.999682 0.00113358 0)
(0.998314 -0.00334969 0)
(0.993627 -0.00113257 0)
(0.99627 0.00288083 0)
(0.998297 0.00134867 0)
(0.999238 0.00414113 0)
(1.001 -0.000606571 0)
(1.00179 0.0016872 0)
(1.00306 -0.00405275 0)
(0.999367 -0.00543217 0)
(0.99659 -0.00432308 0)
(0.995204 -0.00564801 0)
(0.992004 -0.00198089 0)
(0.991281 -0.000297124 0)
(0.991013 0.00192721 0)
(0.990199 0.00595915 0)
(0.991058 0.00826315 0)
(1.00175 -0.00499301 0)
(0.995155 -0.000378728 0)
(0.993971 0.000659488 0)
(0.999639 0.000961355 0)
(0.998303 -0.00311688 0)
(0.993819 -0.00115963 0)
(0.996357 0.00279194 0)
(0.998357 0.00128789 0)
(0.999185 0.00391102 0)
(1.00095 -0.000486631 0)
(1.00168 0.00137384 0)
(1.00279 -0.00369603 0)
(0.999387 -0.00534773 0)
(0.99661 -0.00401668 0)
(0.995367 -0.00531293 0)
(0.992355 -0.00190501 0)
(0.991562 4.82944e-05 0)
(0.991469 0.00196732 0)
(0.990706 0.00583874 0)
(0.991428 0.00826139 0)
(1.00169 -0.00480486 0)
(0.995296 -0.000514381 0)
(0.994041 0.000750476 0)
(0.999598 0.00078677 0)
(0.998298 -0.00288582 0)
(0.994011 -0.0011832 0)
(0.996449 0.00268924 0)
(0.998415 0.0012425 0)
(0.999135 0.00366614 0)
(1.00089 -0.000362514 0)
(1.00157 0.00107146 0)
(1.00253 -0.00336482 0)
(0.999405 -0.00522055 0)
(0.996644 -0.00374679 0)
(0.995524 -0.00493098 0)
(0.992722 -0.00183175 0)
(0.991852 0.00037178 0)
(0.99191 0.00204546 0)
(0.99123 0.00566857 0)
(0.991794 0.00822377 0)
(1.00162 -0.0046093 0)
(0.995444 -0.000658893 0)
(0.994114 0.000848202 0)
(0.999559 0.000612044 0)
(0.998297 -0.00265688 0)
(0.994203 -0.00119793 0)
(0.996545 0.00256806 0)
(0.99847 0.00121444 0)
(0.999089 0.00340598 0)
(1.00082 -0.000237285 0)
(1.00147 0.000789831 0)
(1.00227 -0.00306537 0)
(0.999422 -0.00505366 0)
(0.996694 -0.00350362 0)
(0.995675 -0.00452615 0)
(0.9931 -0.00175531 0)
(0.992157 0.000668695 0)
(0.992332 0.0021619 0)
(0.991766 0.00546689 0)
(0.992167 0.00813715 0)
(1.00156 -0.00440653 0)
(0.995598 -0.000813082 0)
(0.994189 0.000950452 0)
(0.999523 0.000438274 0)
(0.998301 -0.002439 0)
(0.994394 -0.00119484 0)
(0.996646 0.0024293 0)
(0.998525 0.0011991 0)
(0.999047 0.00313902 0)
(1.00075 -0.000118923 0)
(1.00137 0.000537665 0)
(1.00203 -0.00279931 0)
(0.999436 -0.00485654 0)
(0.996758 -0.00327847 0)
(0.995821 -0.00411269 0)
(0.993487 -0.00167003 0)
(0.992478 0.000931518 0)
(0.992732 0.00230853 0)
(0.992306 0.00524706 0)
(0.992557 0.00799227 0)
(1.0015 -0.0041968 0)
(0.995759 -0.000975789 0)
(0.994268 0.00105594 0)
(0.999487 0.000269568 0)
(0.998311 -0.00223475 0)
(0.994584 -0.00117562 0)
(0.996753 0.00227063 0)
(0.998578 0.00119584 0)
(0.999009 0.00287163 0)
(1.00067 -1.75104e-05 0)
(1.00127 0.00031625 0)
(1.0018 -0.00256133 0)
(0.99945 -0.0046343 0)
(0.996839 -0.00306431 0)
(0.995965 -0.00368545 0)
(0.993881 -0.00156563 0)
(0.992819 0.00115545 0)
(0.993111 0.00248252 0)
(0.992842 0.00502593 0)
(0.992971 0.0077819 0)
(1.00143 -0.00398111 0)
(0.995926 -0.00114382 0)
(0.99435 0.00116162 0)
(0.999453 0.000110623 0)
(0.998328 -0.00204588 0)
(0.994772 -0.00113521 0)
(0.996866 0.00209155 0)
(0.998631 0.00120282 0)
(0.998976 0.00261021 0)
(1.00059 6.30416e-05 0)
(1.00117 0.000127855 0)
(1.00158 -0.00234806 0)
(0.999461 -0.00438462 0)
(0.996936 -0.0028603 0)
(0.996106 -0.00325224 0)
(0.994275 -0.00144302 0)
(0.993181 0.00132953 0)
(0.993468 0.00267767 0)
(0.993362 0.00482605 0)
(0.993412 0.00750324 0)
(1.00137 -0.00375959 0)
(0.996101 -0.00131645 0)
(0.994438 0.0012634 0)
(0.99942 -3.55177e-05 0)
(0.99835 -0.00187812 0)
(0.994957 -0.00107377 0)
(0.996984 0.0018988 0)
(0.998685 0.00121162 0)
(0.998945 0.00236083 0)
(1.00051 0.000122291 0)
(1.00108 -2.05988e-05 0)
(1.00137 -0.00215847 0)
(0.999471 -0.00411578 0)
(0.997048 -0.00265809 0)
(0.996247 -0.00282032 0)
(0.994665 -0.00129552 0)
(0.993567 0.0014479 0)
(0.99381 0.00287726 0)
(0.993855 0.00467366 0)
(0.993877 0.00717045 0)
(1.0013 -0.0035337 0)
(0.996283 -0.00149071 0)
(0.99453 0.00135888 0)
(0.999388 -0.000164028 0)
(0.99838 -0.00173225 0)
(0.995137 -0.000992934 0)
(0.997107 0.00169275 0)
(0.998741 0.00121829 0)
(0.998918 0.00213022 0)
(1.00042 0.000156813 0)
(1.00099 -0.000132769 0)
(1.00117 -0.0019813 0)
(0.999482 -0.00383758 0)
(0.997176 -0.0024499 0)
(0.996389 -0.0023946 0)
(0.995044 -0.00112847 0)
(0.993973 0.00151545 0)
(0.994145 0.00305702 0)
(0.994313 0.00458432 0)
(0.994356 0.00681353 0)
(1.00123 -0.00330434 0)
(0.996472 -0.00166598 0)
(0.994629 0.00144447 0)
(0.999357 -0.000272658 0)
(0.998418 -0.0016096 0)
(0.995313 -0.000894079 0)
(0.997234 0.0014813 0)
(0.9988 0.00121331 0)
(0.998893 0.00192585 0)
(1.00034 0.000163481 0)
(1.0009 -0.000211871 0)
(1.00099 -0.00180579 0)
(0.999494 -0.00355499 0)
(0.997319 -0.00224664 0)
(0.996531 -0.00198993 0)
(0.995407 -0.00094645 0)
(0.994398 0.00154355 0)
(0.994484 0.00319216 0)
(0.994733 0.00454999 0)
(0.994831 0.0064692 0)
(1.00116 -0.00307154 0)
(0.996667 -0.00184073 0)
(0.994734 0.00151538 0)
(0.999326 -0.000358782 0)
(0.998465 -0.00151292 0)
(0.995483 -0.000778479 0)
(0.997362 0.00127367 0)
(0.998863 0.00119233 0)
(0.998869 0.0017479 0)
(1.00026 0.000147402 0)
(1.00082 -0.000266278 0)
(1.00082 -0.00162515 0)
(0.999505 -0.00326822 0)
(0.997475 -0.00205864 0)
(0.996676 -0.00160237 0)
(0.995751 -0.000740421 0)
(0.994833 0.00154375 0)
(0.994835 0.00327343 0)
(0.995121 0.00454744 0)
(0.995288 0.00617301 0)
(1.00109 -0.00283793 0)
(0.996868 -0.00201043 0)
(0.994846 0.00157169 0)
(0.999294 -0.000420247 0)
(0.998522 -0.00143944 0)
(0.995649 -0.000650042 0)
(0.997489 0.00107002 0)
(0.998929 0.0011528 0)
(0.998846 0.00160426 0)
(1.00019 0.000115693 0)
(1.00075 -0.000306647 0)
(1.00066 -0.00143132 0)
(0.999516 -0.00297483 0)
(0.997647 -0.00188083 0)
(0.996829 -0.00123552 0)
(0.996071 -0.000509686 0)
(0.995272 0.00152677 0)
(0.995203 0.00330324 0)
(0.995485 0.00454966 0)
(0.995717 0.0059357 0)
(1.00103 -0.00260436 0)
(0.997075 -0.00217153 0)
(0.994967 0.00160788 0)
(0.999262 -0.000456974 0)
(0.998589 -0.00138623 0)
(0.995811 -0.000513798 0)
(0.997614 0.000878104 0)
(0.999001 0.00108776 0)
(0.998823 0.00149726 0)
(1.00011 7.67244e-05 0)
(1.00069 -0.000338059 0)
(1.00052 -0.00122096 0)
(0.999523 -0.00267188 0)
(0.99783 -0.00172247 0)
(0.996993 -0.000909867 0)
(0.996367 -0.000261325 0)
(0.995706 0.0015106 0)
(0.995588 0.00328351 0)
(0.995836 0.00453588 0)
(0.996115 0.00574098 0)
(1.00096 -0.00237191 0)
(0.997286 -0.00232354 0)
(0.995098 0.00162583 0)
(0.999227 -0.000472791 0)
(0.998665 -0.00135365 0)
(0.995971 -0.000369084 0)
(0.997736 0.000704201 0)
(0.99908 0.000996889 0)
(0.998801 0.00142229 0)
(1.00003 3.95082e-05 0)
(1.00065 -0.000378842 0)
(1.00039 -0.00100202 0)
(0.999521 -0.00234627 0)
(0.998021 -0.00158508 0)
(0.997172 -0.000632459 0)
(0.996642 5.58043e-06 0)
(0.996125 0.00151717 0)
(0.995989 0.00322263 0)
(0.996184 0.00450049 0)
(0.996484 0.00557472 0)
(1.00089 -0.00214311 0)
(0.997501 -0.00246241 0)
(0.995239 0.00162373 0)
(0.99919 -0.000467874 0)
(0.998751 -0.00134126 0)
(0.996128 -0.000223602 0)
(0.997851 0.000555211 0)
(0.999167 0.000882276 0)
(0.998781 0.00137488 0)
(0.999955 1.27576e-05 0)
(1.00062 -0.000436013 0)
(1.00028 -0.000789577 0)
(0.999509 -0.00200497 0)
(0.998212 -0.00145211 0)
(0.997373 -0.00040182 0)
(0.996901 0.000285231 0)
(0.99652 0.00156001 0)
(0.996399 0.00313604 0)
(0.996535 0.00443784 0)
(0.996829 0.00542852 0)
(1.00082 -0.00191785 0)
(0.997719 -0.00258598 0)
(0.995392 0.00159617 0)
(0.99915 -0.000437821 0)
(0.998845 -0.00134813 0)
(0.996285 -7.94338e-05 0)
(0.997957 0.000434794 0)
(0.999263 0.000744141 0)
(0.998765 0.00134576 0)
(0.999869 2.17116e-05 0)
(1.0006 -0.000499581 0)
(1.0002 -0.000603774 0)
(0.999488 -0.00165287 0)
(0.998398 -0.00130945 0)
(0.997597 -0.000217311 0)
(0.997153 0.000548593 0)
(0.996885 0.00163763 0)
(0.996808 0.00303889 0)
(0.996894 0.00433746 0)
(0.997153 0.00529495 0)
(1.00076 -0.00170016 0)
(0.997939 -0.00269056 0)
(0.995558 0.00154792 0)
(0.999108 -0.000385691 0)
(0.998947 -0.00137443 0)
(0.996442 6.06322e-05 0)
(0.998053 0.000348862 0)
(0.999369 0.000583267 0)
(0.99876 0.00132624 0)
(0.999775 6.77306e-05 0)
(1.00059 -0.000566855 0)
(1.00015 -0.000461652 0)
(0.99946 -0.00128674 0)
(0.998571 -0.0011402 0)
(0.997841 -8.36553e-05 0)
(0.997406 0.000775695 0)
(0.99722 0.00174561 0)
(0.997205 0.0029507 0)
(0.997264 0.00419869 0)
(0.997465 0.00516262 0)
(1.00069 -0.00149028 0)
(0.998158 -0.00277431 0)
(0.995737 0.00147408 0)
(0.999064 -0.000307192 0)
(0.999057 -0.00141892 0)
(0.996603 0.000185154 0)
(0.998134 0.000307206 0)
(0.999483 0.000406608 0)
(0.998769 0.00130559 0)
(0.999672 0.000158355 0)
(1.00059 -0.000626207 0)
(1.00014 -0.000369398 0)
(0.999434 -0.000929502 0)
(0.998724 -0.000941184 0)
(0.998096 6.40812e-06 0)
(0.997669 0.000951891 0)
(0.99753 0.00187234 0)
(0.997578 0.00289089 0)
(0.997642 0.00403327 0)
(0.997773 0.00501563 0)
(1.00063 -0.00129063 0)
(0.998375 -0.0028315 0)
(0.995931 0.00137106 0)
(0.999017 -0.000203507 0)
(0.999173 -0.00147777 0)
(0.996771 0.0002882 0)
(0.9982 0.000316535 0)
(0.999602 0.000226756 0)
(0.9988 0.00126162 0)
(0.999559 0.000295846 0)
(1.00058 -0.000656954 0)
(1.00016 -0.000329514 0)
(0.999419 -0.000603715 0)
(0.998851 -0.00071044 0)
(0.998356 8.29753e-05 0)
(0.997951 0.0010738 0)
(0.997824 0.00199386 0)
(0.997919 0.00286766 0)
(0.998016 0.00385784 0)
(0.998088 0.00483873 0)
(1.00056 -0.00110456 0)
(0.998587 -0.00285627 0)
(0.996139 0.00123728 0)
(0.998967 -7.80538e-05 0)
(0.999292 -0.0015414 0)
(0.99695 0.00035408 0)
(0.998249 0.000379755 0)
(0.999721 6.46533e-05 0)
(0.998856 0.00118067 0)
(0.999443 0.000457684 0)
(1.00057 -0.000637096 0)
(1.00022 -0.000331635 0)
(0.999425 -0.000322952 0)
(0.998956 -0.000447688 0)
(0.998607 0.000173073 0)
(0.998248 0.00114859 0)
(0.998114 0.00208512 0)
(0.998226 0.0028778 0)
(0.998374 0.00370027 0)
(0.998412 0.00463039 0)
(1.00051 -0.000932785 0)
(0.998793 -0.00284706 0)
(0.996362 0.00106932 0)
(0.998916 6.47547e-05 0)
(0.999409 -0.00160012 0)
(0.997146 0.000372917 0)
(0.998287 0.000485684 0)
(0.999831 -7.89349e-05 0)
(0.998941 0.00105949 0)
(0.999332 0.000629218 0)
(1.00053 -0.00055829 0)
(1.0003 -0.00035339 0)
(0.999462 -9.64828e-05 0)
(0.999044 -0.000176185 0)
(0.99884 0.000283581 0)
(0.998554 0.00119467 0)
(0.998412 0.00213804 0)
(0.99851 0.00290217 0)
(0.998701 0.00358734 0)
(0.998737 0.00441351 0)
(1.00045 -0.000777495 0)
(0.998989 -0.00280014 0)
(0.9966 0.000871112 0)
(0.998865 0.000214988 0)
(0.999521 -0.00164059 0)
(0.99736 0.000334686 0)
(0.998313 0.000619464 0)
(0.999927 -0.000178232 0)
(0.999056 0.00089931 0)
(0.999237 0.000788195 0)
(1.00047 -0.000419845 0)
(1.00039 -0.000375218 0)
(0.999535 6.89451e-05 0)
(0.999124 9.89655e-05 0)
(0.99905 0.000419871 0)
(0.998859 0.00123012 0)
(0.998719 0.00215948 0)
(0.998783 0.0029134 0)
(0.998995 0.00351175 0)
(0.999051 0.00421275 0)
(1.00039 -0.000640245 0)
(0.999172 -0.00271699 0)
(0.996852 0.000649211 0)
(0.998817 0.000369598 0)
(0.999621 -0.00164269 0)
(0.997595 0.000236453 0)
(0.998339 0.000762482 0)
(1 -0.000201929 0)
(0.999196 0.000717993 0)
(0.999168 0.0009101 0)
(1.00038 -0.000237636 0)
(1.00049 -0.000373809 0)
(0.999646 0.000173462 0)
(0.999208 0.000355087 0)
(0.999233 0.000577557 0)
(0.999156 0.0012609 0)
(0.999033 0.002155 0)
(0.999053 0.0029035 0)
(0.999263 0.00344963 0)
(0.999343 0.00403872 0)
(1.00034 -0.000521437 0)
(0.999341 -0.00259842 0)
(0.997115 0.000413955 0)
(0.998776 0.000509364 0)
(0.999703 -0.00159237 0)
(0.997848 9.58432e-05 0)
(0.998374 0.000890241 0)
(1.00005 -0.000149764 0)
(0.999353 0.000539183 0)
(0.999133 0.000977345 0)
(1.00029 -4.22681e-05 0)
(1.00057 -0.000332849 0)
(0.999791 0.000232569 0)
(0.999306 0.000562998 0)
(0.999391 0.000748697 0)
(0.999435 0.00129626 0)
(0.999353 0.00212758 0)
(0.999325 0.002876 0)
(0.999511 0.00339074 0)
(0.999616 0.00388306 0)
(1.0003 -0.000421505 0)
(0.999492 -0.00245 0)
(0.997387 0.000176494 0)
(0.998747 0.000621504 0)
(0.999764 -0.00148164 0)
(0.998115 -7.17328e-05 0)
(0.998428 0.000972358 0)
(1.00007 -4.25346e-05 0)
(0.999513 0.000388204 0)
(0.999134 0.000990656 0)
(1.00019 0.000157397 0)
(1.00064 -0.000251901 0)
(0.999959 0.000271574 0)
(0.999427 0.000727293 0)
(0.999533 0.0009215 0)
(0.99969 0.001344 0)
(0.999673 0.00208219 0)
(0.999606 0.00282599 0)
(0.999744 0.00333897 0)
(0.99987 0.00373855 0)
(1.00026 -0.000340513 0)
(0.999624 -0.00227757 0)
(0.997664 -4.91794e-05 0)
(0.998736 0.000691872 0)
(0.999802 -0.00130975 0)
(0.998385 -0.000249181 0)
(0.998508 0.000990112 0)
(1.00008 0.000102812 0)
(0.999668 0.000283945 0)
(0.999172 0.000960433 0)
(1.00009 0.000350345 0)
(1.0007 -0.000137361 0)
(1.00014 0.000305628 0)
(0.999574 0.000849648 0)
(0.999665 0.00108177 0)
(0.999916 0.00140497 0)
(0.999984 0.00202922 0)
(0.999902 0.00274267 0)
(0.99997 0.00328677 0)
(1.0001 0.00361658 0)
(1.00022 -0.000276216 0)
(0.999737 -0.00208734 0)
(0.997939 -0.000258871 0)
(0.998746 0.000714338 0)
(0.999817 -0.00109749 0)
(0.998648 -0.000405517 0)
(0.99862 0.000941271 0)
(1.00007 0.000269752 0)
(0.999807 0.000244096 0)
(0.999242 0.000909976 0)
(1.00002 0.000513828 0)
(1.00073 2.07152e-06 0)
(1.00033 0.000342861 0)
(0.999747 0.000935553 0)
(0.999797 0.0012265 0)
(1.00011 0.0014818 0)
(1.00028 0.00198951 0)
(1.00021 0.00263227 0)
(1.0002 0.00320857 0)
(1.0003 0.00352508 0)
(1.00018 -0.000229418 0)
(0.99983 -0.00188396 0)
(0.998209 -0.000447893 0)
(0.998781 0.000691531 0)
(0.999815 -0.000868 0)
(0.998893 -0.000506812 0)
(0.998762 0.000832573 0)
(1.00007 0.000413176 0)
(0.999928 0.000265443 0)
(0.999333 0.000865711 0)
(0.999962 0.000642098 0)
(1.00075 0.000149893 0)
(1.00052 0.000385283 0)
(0.999945 0.000988057 0)
(0.999937 0.00134698 0)
(1.00029 0.00156414 0)
(1.00054 0.00197065 0)
(1.00052 0.00251778 0)
(1.00046 0.00308718 0)
(1.00049 0.00344537 0)
(1.00015 -0.000196572 0)
(0.999903 -0.00167483 0)
(0.998466 -0.000602974 0)
(0.99884 0.000622874 0)
(0.999801 -0.000638567 0)
(0.999112 -0.000535882 0)
(0.998927 0.000688068 0)
(1.00009 0.000505418 0)
(1.00003 0.000321572 0)
(0.999436 0.000848674 0)
(0.999926 0.000750873 0)
(1.00076 0.000298418 0)
(1.00069 0.000437619 0)
(1.00016 0.00102 0)
(1.00009 0.00144098 0)
(1.00044 0.00164555 0)
(1.00077 0.00196733 0)
(1.00081 0.00242216 0)
(1.00074 0.00293675 0)
(1.00069 0.00334027 0)
(1.00012 -0.000174955 0)
(0.999957 -0.00146896 0)
(0.998704 -0.000716939 0)
(0.998924 0.000521057 0)
(0.999786 -0.000430308 0)
(0.999298 -0.000497619 0)
(0.999101 0.000543293 0)
(1.00012 0.000535829 0)
(1.00013 0.000394503 0)
(0.999547 0.000862513 0)
(0.999906 0.00085224 0)
(1.00076 0.000442528 0)
(1.00086 0.000494932 0)
(1.00039 0.00103526 0)
(1.00026 0.0015067 0)
(1.00059 0.00172225 0)
(1.00097 0.00197217 0)
(1.00108 0.00234885 0)
(1.00102 0.00279101 0)
(1.00091 0.00319292 0)
(1.0001 -0.000161838 0)
(0.999994 -0.00127357 0)
(0.99892 -0.000786153 0)
(0.999027 0.000395194 0)
(0.999777 -0.000254424 0)
(0.999452 -0.00041099 0)
(0.999271 0.000429061 0)
(1.00018 0.000511975 0)
(1.00024 0.000452087 0)
(0.999663 0.000897188 0)
(0.999899 0.000959198 0)
(1.00075 0.00058948 0)
(1.001 0.000561021 0)
(1.00063 0.00103134 0)
(1.00045 0.00154004 0)
(1.00073 0.00178632 0)
(1.00115 0.00198365 0)
(1.00131 0.00228659 0)
(1.00129 0.00267078 0)
(1.00115 0.00302604 0)
(1.00008 -0.00015289 0)
(1.00002 -0.00109838 0)
(0.999111 -0.000806601 0)
(0.999144 0.000257825 0)
(0.99978 -0.000120838 0)
(0.999579 -0.000296955 0)
(0.999426 0.000365847 0)
(1.00024 0.000471524 0)
(1.00035 0.000461772 0)
(0.999793 0.000928241 0)
(0.999906 0.00106816 0)
(1.00073 0.000739335 0)
(1.00112 0.000642459 0)
(1.00087 0.00101765 0)
(1.00067 0.00154168 0)
(1.00087 0.00183427 0)
(1.0013 0.00200664 0)
(1.00153 0.00223302 0)
(1.00153 0.00257099 0)
(1.00139 0.00287303 0)
(1.00006 -0.00014544 0)
(1.00003 -0.000945905 0)
(0.999275 -0.000785859 0)
(0.999269 0.000127452 0)
(0.999799 -3.09131e-05 0)
(0.999688 -0.000174151 0)
(0.999563 0.000352706 0)
(1.00031 0.000439142 0)
(1.00048 0.000435646 0)
(0.999942 0.000933258 0)
(0.999929 0.00117471 0)
(1.0007 0.000896402 0)
(1.0012 0.000737428 0)
(1.0011 0.00101014 0)
(1.0009 0.00150821 0)
(1.00103 0.00184945 0)
(1.00143 0.00203008 0)
(1.00171 0.00218926 0)
(1.00176 0.00247393 0)
(1.00161 0.00274636 0)
(1.00005 -0.000139128 0)
(1.00004 -0.000815006 0)
(0.999413 -0.00073492 0)
(0.999396 2.05858e-05 0)
(0.999837 2.19502e-05 0)
(0.999785 -5.7376e-05 0)
(0.999679 0.000374212 0)
(1.00037 0.000432519 0)
(1.0006 0.000401089 0)
(1.00012 0.000891718 0)
(0.999979 0.00125792 0)
(1.00066 0.00106128 0)
(1.00125 0.00084791 0)
(1.00129 0.00102054 0)
(1.00114 0.00145939 0)
(1.00121 0.00182635 0)
(1.00156 0.0020406 0)
(1.00187 0.00216216 0)
(1.00196 0.00237661 0)
(1.00181 0.00263603 0)
(1.00004 -0.000130102 0)
(1.00005 -0.000706474 0)
(0.999531 -0.000662127 0)
(0.999517 -5.75219e-05 0)
(0.99989 3.77942e-05 0)
(0.999879 4.62561e-05 0)
(0.999783 0.000413911 0)
(1.00041 0.000462518 0)
(1.00071 0.00037774 0)
(1.00031 0.000812347 0)
(1.00007 0.00129099 0)
(1.00062 0.0012144 0)
(1.00127 0.000979228 0)
(1.00146 0.00104505 0)
(1.00137 0.0014129 0)
(1.00141 0.00177299 0)
(1.00169 0.00201955 0)
(1.00199 0.00214412 0)
(1.00215 0.00228587 0)
(1.002 0.00252248 0)
(1.00002 -0.00011921 0)
(1.00005 -0.000615263 0)
(0.999629 -0.000577814 0)
(0.999628 -0.000100386 0)
(0.999957 3.16989e-05 0)
(0.999976 0.000120461 0)
(0.999878 0.000462881 0)
(1.00044 0.000514921 0)
(1.0008 0.000385699 0)
(1.00051 0.000727281 0)
(1.0002 0.00126417 0)
(1.0006 0.00133345 0)
(1.00125 0.00112671 0)
(1.00158 0.00109217 0)
(1.00159 0.00137355 0)
(1.00162 0.00170782 0)
(1.00185 0.00196459 0)
(1.0021 0.00211677 0)
(1.0023 0.00221204 0)
(1.00217 0.00240081 0)
(1.00001 -0.00010778 0)
(1.00005 -0.000536138 0)
(0.999714 -0.000492517 0)
(0.999727 -0.000104615 0)
(1.00003 2.6953e-05 0)
(1.00008 0.000159307 0)
(0.999972 0.000508625 0)
(1.00047 0.00057844 0)
(1.00086 0.000429703 0)
(1.0007 0.000658525 0)
(1.00037 0.00118756 0)
(1.00062 0.00139823 0)
(1.00122 0.00126163 0)
(1.00165 0.00116958 0)
(1.00177 0.0013465 0)
(1.00182 0.00164099 0)
(1.00201 0.00188889 0)
(1.00221 0.00206422 0)
(1.00241 0.002153 0)
(1.00234 0.00227936 0)
(1.00001 -9.34931e-05 0)
(1.00006 -0.000469105 0)
(0.999789 -0.000411065 0)
(0.999814 -8.27825e-05 0)
(1.0001 2.99561e-05 0)
(1.00019 0.00018269 0)
(1.00007 0.000536958 0)
(1.00049 0.000644991 0)
(1.0009 0.000500058 0)
(1.00086 0.000623756 0)
(1.00056 0.00109479 0)
(1.00068 0.00140344 0)
(1.0012 0.0013659 0)
(1.00168 0.00126266 0)
(1.00191 0.00134498 0)
(1.002 0.00157727 0)
(1.00218 0.00180514 0)
(1.00234 0.00198387 0)
(1.00251 0.0020918 0)
(1.00247 0.00216944 0)
(1 -8.02461e-05 0)
(1.00006 -0.000405246 0)
(0.999858 -0.000338523 0)
(0.99989 -4.18798e-05 0)