/*--------------------------------*- C++ -*----------------------------------*\
| =========                 |                                                 |
| \\      /  F ield         | OpenFOAM: The Open Source CFD Toolbox           |
|  \\    /   O peration     | Version:  2106                                  |
|   \\  /    A nd           | Website:  www.openfoam.com                      |
|    \\/     M anipulation  |                                                 |
\*---------------------------------------------------------------------------*/
FoamFile
{
    version     2.0;
    format      ascii;
    arch        "LSB;label=32;scalar=64";
    class       volScalarField;
    location    "0.155";
    object      p;
}
// * * * * * * * * * * * * * * * * * * * * * * * * * * * * * * * * * * * * * //

dimensions      [0 2 -2 0 0 0 0];

internalField   nonuniform List<scalar> 
9600
(
4.65965e-12
-0.000604373
0.000758915
0.00152157
-0.000469061
0.000426742
0.00142626
0.00176011
0.00235538
0.00246632
0.00258553
0.00455135
0.00446703
0.00478952
0.00583904
0.00793517
0.00945618
0.0108363
0.0149038
0.018895
5.10869e-07
-0.000607835
0.000760557
0.00152203
-0.000466269
0.000424402
0.00142653
0.00175941
0.00235586
0.00246205
0.00259658
0.00453298
0.00446145
0.00479537
0.00584486
0.00792646
0.00946383
0.0107784
0.0149535
0.0184541
5.93363e-07
-0.000610617
0.000761343
0.00152186
-0.000459807
0.0004193
0.00142625
0.00176108
0.00235483
0.0024567
0.0026088
0.00450676
0.00446571
0.004805
0.00584653
0.00791577
0.00946036
0.0107173
0.0149551
0.0178545
1.01032e-07
-0.000611172
0.000759943
0.00152044
-0.000448026
0.000412191
0.00142409
0.00176719
0.00235123
0.00244956
0.00262326
0.00447779
0.00447548
0.00481011
0.00584424
0.0079022
0.00945266
0.0106536
0.0148887
0.0173447
-8.53576e-07
-0.00060937
0.000756383
0.00151758
-0.000430145
0.000402606
0.00142038
0.0017773
0.00234519
0.00244137
0.00264089
0.00444515
0.00448635
0.0048111
0.00584135
0.00788431
0.00944722
0.0105794
0.0147936
0.0168866
-2.17209e-06
-0.000605224
0.000751124
0.00151356
-0.000406953
0.000390316
0.00141607
0.00179021
0.00233776
0.00243262
0.00266072
0.00441004
0.00449736
0.00481005
0.00583881
0.00786351
0.00944083
0.0104989
0.0146717
0.0164537
-3.74057e-06
-0.000599053
0.000744865
0.00150886
-0.000380099
0.000375822
0.00141179
0.0018048
0.00232984
0.00242321
0.00268205
0.00437393
0.00450804
0.0048078
0.00583679
0.00784012
0.0094308
0.0104147
0.0145167
0.0160394
-5.43901e-06
-0.000591343
0.000738337
0.00150396
-0.000351097
0.000359931
0.00140774
0.00182008
0.00232187
0.00241293
0.00270462
0.00433753
0.00451797
0.00480481
0.00583462
0.00781434
0.00941512
0.0103272
0.0143269
0.0156415
-7.19953e-06
-0.000582572
0.000732095
0.00149916
-0.000320835
0.000343452
0.00140383
0.00183519
0.00231397
0.00240163
0.00272809
0.00430115
0.00452708
0.00480116
0.0058315
0.00778669
0.00939158
0.0102366
0.0141033
0.0152568
-9.02188e-06
-0.000573147
0.00072645
0.00149455
-0.000289624
0.000327074
0.0013999
0.00184944
0.00230607
0.00238922
0.00275218
0.00426517
0.00453516
0.00479703
0.00582664
0.00775764
0.00935815
0.0101431
0.0138488
0.0148796
-1.09121e-05
-0.000563386
0.000721489
0.00149013
-0.000257513
0.000311272
0.0013959
0.00186232
0.00229813
0.00237566
0.00277657
0.00422985
0.00454183
0.00479291
0.00581899
0.00772759
0.00931373
0.0100459
0.0135663
0.014505
-1.28614e-05
-0.000553537
0.000717194
0.00148582
-0.000224561
0.000296239
0.00139184
0.00187363
0.00229014
0.002361
0.00280093
0.00419543
0.0045465
0.00478921
0.00580767
0.00769686
0.0092576
0.00994338
0.0132596
0.0141377
-1.486e-05
-0.000543786
0.000713543
0.00148158
-0.000190945
0.000281911
0.00138779
0.00188339
0.00228215
0.00234535
0.00282488
0.00416223
0.00454832
0.00478618
0.00579212
0.0076654
0.00918955
0.0098358
0.0129333
0.0137555
-1.68889e-05
-0.00053426
0.000710524
0.0014774
-0.000156932
0.00026809
0.00138379
0.00189176
0.00227417
0.00232893
0.002848
0.00413056
0.00454646
0.00478412
0.0057718
0.00763245
0.00911026
0.00971458
0.012592
0.0133677
-1.89162e-05
-0.00052506
0.000708126
0.00147325
-0.000122792
0.000254562
0.00137988
0.00189892
0.00226617
0.00231203
0.00286977
0.00410078
0.00454023
0.00478313
0.00574646
0.00759677
0.00902083
0.00957954
0.0122398
0.0129743
-2.08984e-05
-0.00051628
0.000706339
0.00146918
-8.87518e-05
0.000241166
0.00137606
0.00190504
0.00225796
0.00229498
0.00288965
0.0040733
0.00452907
0.00478301
0.00571633
0.00755663
0.0089228
0.00942875
0.01188
0.0125769
-2.27811e-05
-0.000508018
0.000705144
0.0014652
-5.49869e-05
0.000227821
0.00137229
0.00191029
0.00224932
0.00227811
0.00290709
0.00404843
0.00451259
0.00478342
0.00568185
0.00750981
0.00881805
0.00926066
0.011514
0.0121783
-2.45004e-05
-0.000500372
0.000704511
0.00146138
-2.1632e-05
0.000214513
0.00136849
0.0019148
0.00224
0.00226178
0.00292154
0.00402635
0.00449071
0.00478352
0.00564399
0.00745369
0.00870733
0.00907623
0.0111423
0.0117808
-2.59814e-05
-0.000493455
0.000704396
0.00145776
1.1201e-05
0.000201267
0.00136455
0.00191875
0.00222966
0.00224636
0.00293261
0.00400706
0.00446361
0.00478185
0.00560423
0.00738585
0.00859056
0.00887842
0.0107637
0.0113856
-2.71332e-05
-0.000487387
0.000704735
0.00145443
4.33999e-05
0.000188149
0.00136029
0.00192236
0.00221788
0.00223203
0.00294011
0.00399032
0.00443183
0.00477666
0.00556368
0.00730489
0.00846729
0.0086702
0.010377
0.0109941
-2.78538e-05
-0.000482293
0.000705438
0.00145148
7.4841e-05
0.000175265
0.0013555
0.0019259
0.00220431
0.00221888
0.00294388
0.00397566
0.00439631
0.00476603
0.00552269
0.00721089
0.00833603
0.00845421
0.00998271
0.0106065
-2.8031e-05
-0.000478302
0.000706389
0.001449
0.000105385
0.00016274
0.00134992
0.00192961
0.00218872
0.00220692
0.00294384
0.00396224
0.00435838
0.00474819
0.00548087
0.0071052
0.00819491
0.00823276
0.0095822
0.0102215
-2.75347e-05
-0.000475545
0.000707427
0.00144715
0.000134891
0.000150735
0.00134323
0.00193371
0.0021709
0.00219596
0.00294041
0.00394867
0.00431933
0.00472217
0.00543725
0.00698929
0.00804247
0.00800757
0.00917701
0.00983691
-2.62262e-05
-0.000474147
0.000708348
0.00144608
0.000163196
0.000139452
0.00133511
0.00193829
0.00215081
0.00218558
0.00293428
0.00393338
0.00427992
0.00468757
0.00538986
0.00686443
0.00787807
0.00777958
0.00876938
0.00945104
-2.39625e-05
-0.00047423
0.000708907
0.00144596
0.000190116
0.000129094
0.00132532
0.00194337
0.00212862
0.00217507
0.00292628
0.00391512
0.00424023
0.0046446
0.00533641
0.00673151
0.0077024
0.00754955
0.00836187
0.00906209
-2.05927e-05
-0.000475894
0.000708796
0.00144702
0.000215455
0.000119881
0.00131362
0.00194883
0.00210472
0.00216358
0.00291736
0.00389239
0.00419947
0.00459434
0.00527559
0.00659067
0.00751622
0.00731833
0.00795671
0.00866811
-1.59526e-05
-0.000479238
0.000707645
0.00144952
0.00023899
0.000111995
0.00129991
0.00195429
0.00207984
0.00214997
0.00290805
0.00386362
0.00415632
0.00453742
0.00520706
0.00644174
0.00731944
0.00708731
0.00755681
0.00826725
-9.90099e-06
-0.000484326
0.000705063
0.00145376
0.000260533
0.000105475
0.00128422
0.00195932
0.00205475
0.00213296
0.00289833
0.00383185
0.00410899
0.00447365
0.00513132
0.00628493
0.00711134
0.00685787
0.00716691
0.00785875
-2.30341e-06
-0.000491179
0.00070057
0.00146001
0.000279935
0.000100322
0.00126673
0.00196321
0.00203039
0.00211197
0.00288765
0.00379787
0.0040559
0.00440253
0.00504893
0.00612108
0.00689161
0.00662908
0.00679135
0.00744508
7.03617e-06
-0.000502079
0.00069348
0.00146859
0.000297131
9.64467e-05
0.00124782
0.00196485
0.00200797
0.0020869
0.00287454
0.00376326
0.00399645
0.00432293
0.00496013
0.00595177
0.00666092
0.00639756
0.00643149
0.00703161
1.82748e-05
-0.000512811
0.000683128
0.00147977
0.000312225
9.34796e-05
0.00122803
0.00196317
0.00198792
0.00205786
0.00285727
0.00372897
0.00393091
0.0042331
0.00486481
0.00577905
0.00642033
0.00616043
0.00608654
0.00662335
3.14867e-05
-0.000524857
0.000668904
0.00149378
0.000325394
9.0782e-05
0.00120823
0.00195722
0.00197005
0.00202585
0.00283367
0.0036947
0.00386115
0.00413118
0.00476156
0.00560573
0.00617167
0.00591615
0.00575571
0.00622265
4.67189e-05
-0.000538073
0.000650077
0.00151073
0.000337063
8.76201e-05
0.00118944
0.00194606
0.00195415
0.00199262
0.00280151
0.00365979
0.00379
0.00401637
0.00464732
0.00543487
0.00591877
0.00566331
0.00543736
0.00582971
6.39777e-05
-0.000552179
0.000625853
0.00153063
0.000348008
8.29304e-05
0.0011725
0.00192941
0.00193922
0.00196003
0.00275991
0.00362162
0.00371991
0.00388991
0.00451808
0.0052666
0.0056676
0.00540193
0.00512881
0.00544474
8.32262e-05
-0.000566781
0.000595459
0.00155322
0.000359206
7.54097e-05
0.00115824
0.00190774
0.00192363
0.00192968
0.00270907
0.00357617
0.00365203
0.00375529
0.0043709
0.00509743
0.00542421
0.00513553
0.00482683
0.00506865
0.000104341
-0.000581324
0.000558277
0.00157797
0.00037187
6.37166e-05
0.00114696
0.00188217
0.00192136
0.00190247
0.00265028
0.00351962
0.00358605
0.00361756
0.00420535
0.00492168
0.00519106
0.00486999
0.00452967
0.00470209
0.000127082
-0.000595101
0.000513809
0.00160419
0.000387459
4.64705e-05
0.00113816
0.00185415
0.00189302
0.0018783
0.00258654
0.00344879
0.00351986
0.00348176
0.00402352
0.00473406
0.0049664
0.0046114
0.00423909
0.00434561
0.000151141
-0.000607347
0.000461676
0.00163073
0.00040762
2.27697e-05
0.00113081
0.00182598
0.00185551
0.00185608
0.00252199
0.00336254
0.00344858
0.00335182
0.00383019
0.00453094
0.00474574
0.00436283
0.00395869
0.00400122
0.000176165
-0.000617321
0.000401724
0.00165602
0.000434066
-7.69967e-06
0.00112304
0.00180046
0.00180822
0.00183265
0.0024603
0.00326118
0.00336575
0.00322871
0.00363296
0.00431161
0.00452261
0.00412342
0.00369226
0.00367325
0.000201621
-0.000624005
0.000334135
0.00167814
0.000468323
-4.48489e-05
0.00111217
0.0017801
0.00175153
0.00180323
0.00240374
0.00314816
0.00326563
0.00310974
0.00344013
0.00407956
0.00429128
0.00388988
0.0034411
0.00336661
0.000226866
-0.000626357
0.000259503
0.00169482
0.000511615
-8.79735e-05
0.00109478
0.00176671
0.00168731
0.00176232
0.00235253
0.00303036
0.00314551
0.00298902
0.00325697
0.00384181
0.00404932
0.00365523
0.0032011
0.00308653
0.000251238
-0.00062356
0.000178757
0.00170348
0.000564733
-0.000135585
0.00106722
0.00176115
0.0015973
0.00170527
0.00230781
0.002916
0.00300651
0.00285789
0.0030834
0.00360784
0.00379979
0.00341295
0.00296408
0.0028334
0.000273916
-0.000614674
9.32387e-05
0.00170127
0.000627879
-0.000186459
0.00102619
0.00176354
0.0015268
0.00162702
0.00226005
0.00281202
0.0028528
0.00270825
0.00291533
0.00338557
0.00354887
0.0031624
0.0027186
0.00259658
0.000294034
-0.000599031
4.88552e-06
0.00168539
0.000700429
-0.000232341
0.000968811
0.00177143
0.00146459
0.00152803
0.00220245
0.00272157
0.0026929
0.00253625
0.00274488
0.00317813
0.00330507
0.00290887
0.00245785
0.00235905
0.000310792
-0.000576327
-8.41368e-05
0.00165324
0.000780973
-0.000271047
0.000893075
0.00178022
0.00141587
0.00141089
0.00212645
0.00264335
0.00253848
0.00234326
0.0025608
0.00298275
0.00307762
0.00265977
0.00218545
0.00210224
0.000323375
-0.000546216
-0.000171449
0.00160249
0.000867306
-0.000298627
0.000798246
0.00178398
0.00138345
0.00128173
0.00202466
0.0025736
0.00240065
0.00213517
0.002353
0.0027924
0.00287201
0.00242351
0.00191141
0.00181877
0.000331155
-0.000508488
-0.000254413
0.00153153
0.00095591
-0.000310636
0.000685145
0.00177541
0.00136981
0.00113207
0.00189181
0.00250349
0.00228593
0.00192219
0.00211701
0.00259473
0.00268765
0.00220954
0.00164527
0.00151686
0.000333584
-0.000465318
-0.000330359
0.00143971
0.0010425
-0.000303038
0.000556772
0.00174744
0.00137495
0.00100009
0.00172713
0.00242091
0.00219505
0.00171882
0.00185583
0.00237461
0.00251785
0.00202592
0.00139556
0.0012111
0.000330116
-0.000417062
-0.000396621
0.0013273
0.00112172
-0.000272917
0.000418228
0.0016938
0.00139411
0.000883195
0.00153405
0.00231305
0.00212384
0.00154007
0.00157883
0.00212093
0.00234898
0.00187632
0.0011717
0.000911829
0.000320543
-0.000365382
-0.00045111
0.00119642
0.00118763
-0.000220231
0.000277196
0.00161015
0.00141969
0.000789582
0.00131955
0.00217008
0.0020634
0.00139575
0.00129992
0.0018316
0.00216096
0.00175495
0.000985778
0.000625316
0.000304867
-0.000312282
-0.000492047
0.00105088
0.00123447
-0.000146786
0.000142746
0.00149424
0.00144218
0.000724169
0.00109549
0.00198735
0.00199947
0.00128811
0.0010365
0.00151448
0.00193572
0.00164554
0.00084879
0.000360607
0.000283277
-0.000259995
-0.000518156
0.000895364
0.00125744
-5.4935e-05
2.1195e-05
0.00134602
0.00145089
0.000688519
0.000876331
0.00176555
0.00191595
0.00121292
0.00080542
0.00118315
0.00166584
0.00152224
0.000758839
0.00013557
0.000256329
-0.000210782
-0.000529064
0.000735331
0.00125321
5.00011e-05
-8.12828e-05
0.00116928
0.00143592
0.000677614
0.000675286
0.00151108
0.00179913
0.00116004
0.000617321
0.00085485
0.00135647
0.00136001
0.000697118
-2.98579e-05
0.000224691
-0.00016678
-0.000525156
0.000576546
0.00121965
0.000154186
-0.000159521
0.000972181
0.00138952
0.000684203
0.000502609
0.00123471
0.00164054
0.0011127
0.000474603
0.000548186
0.00102159
0.00114719
0.000632957
-0.000130936
0.000189168
-0.000129773
-0.000507942
0.000424494
0.00115567
0.000251744
-0.000210663
0.000765667
0.00130669
0.000697092
0.000363959
0.000951854
0.00143845
0.00105211
0.000372085
0.000278571
0.000678121
0.000887093
0.000534416
-0.000186781
0.000150803
-0.000101066
-0.00048009
0.000283713
0.00106252
0.00033473
-0.000234425
0.000561668
0.00118652
0.00070314
0.000259998
0.000679504
0.00119846
0.000962525
0.00029839
5.46504e-05
0.00034425
0.000593604
0.00038537
-0.000230222
0.000110586
-8.14937e-05
-0.000445056
0.000157562
0.00094446
0.000396249
-0.000233643
0.000370726
0.00103216
0.00068992
0.000186679
0.000431394
0.000931081
0.000834824
0.000235987
-0.000123206
3.58925e-05
0.000283394
0.000187139
-0.000296597
6.93548e-05
-7.14156e-05
-0.000406756
4.80399e-05
0.000807782
0.000431865
-0.000215464
0.000199932
0.000850314
0.000648817
0.000134549
0.000215152
0.000650948
0.000667133
0.000166103
-0.000261775
-0.000236057
-2.71406e-05
-4.78705e-05
-0.000405639
2.78677e-05
-7.06878e-05
-0.000369138
-4.41103e-05
0.000659602
0.000439249
-0.00016506
5.35502e-05
0.000651164
0.000575638
9.14773e-05
3.30429e-05
0.000373979
0.000464637
7.45384e-05
-0.000373018
-0.000467051
-0.000323888
-0.000303741
-0.000558531
-1.33372e-05
-7.87647e-05
-0.00033574
-0.000119566
0.000507129
0.000415893
-0.000139998
-6.81222e-05
0.000446057
0.000470254
4.51058e-05
-0.000117697
0.000113672
0.000237314
-4.62285e-05
-0.000472875
-0.000659539
-0.000596661
-0.00056624
-0.000745128
-5.39518e-05
-9.47902e-05
-0.000309335
-0.000180256
0.000356837
0.000363624
-0.000121791
-0.000166022
0.000245355
0.000336371
-1.43565e-05
-0.000243131
-0.000121764
-2.28617e-06
-0.000196924
-0.000576153
-0.000820786
-0.000839545
-0.000823678
-0.000951954
-9.38766e-05
-0.000117657
-0.00029189
-0.000229045
0.000213607
0.000286798
-0.000117468
-0.000244416
5.69134e-05
0.000180641
-9.27853e-05
-0.000352489
-0.000329895
-0.000241381
-0.000372251
-0.000692694
-0.000961875
-0.00105189
-0.00106746
-0.00116721
-0.000133223
-0.000146235
-0.000285369
-0.000269293
8.06796e-05
0.00019108
-0.000131379
-0.000309463
-0.000114742
1.15831e-05
-0.00019204
-0.000455489
-0.000512881
-0.000469987
-0.000563495
-0.000826507
-0.00109463
-0.00123726
-0.00129209
-0.0013818
-0.000172214
-0.00017946
-0.000288981
-0.000304378
-4.03813e-05
8.25777e-05
-0.000165227
-0.000367877
-0.000268198
-0.00016216
-0.000310552
-0.000559847
-0.00067507
-0.000682435
-0.000761366
-0.000976423
-0.00122785
-0.00140242
-0.00149557
-0.001589
-0.000211131
-0.000216312
-0.000302286
-0.000337472
-0.000149688
-3.279e-05
-0.000218361
-0.00042583
-0.000404743
-0.000333362
-0.000444256
-0.000670275
-0.000822195
-0.000877066
-0.000957829
-0.00113794
-0.00136622
-0.00155507
-0.00167908
-0.00178427
-0.000250247
-0.000255903
-0.000324391
-0.000371085
-0.000248093
-0.00015004
-0.000288278
-0.000487877
-0.000527128
-0.000497078
-0.000587818
-0.000788697
-0.000960072
-0.00105473
-0.00114727
-0.00130543
-0.0015107
-0.00170147
-0.00184629
-0.00196557
-0.000289809
-0.000297553
-0.000354087
-0.00040776
-0.000337301
-0.000265561
-0.00037139
-0.000556617
-0.000639006
-0.000650768
-0.000735677
-0.000914657
-0.00109322
-0.00121777
-0.00132654
-0.00147361
-0.00165964
-0.00184533
-0.00200155
-0.00213313
-0.000329985
-0.000340744
-0.000390091
-0.000447746
-0.000419188
-0.000376969
-0.000463699
-0.000632893
-0.000744072
-0.000793914
-0.00088305
-0.00104596
-0.0012244
-0.0013692
-0.00149439
-0.0016382
-0.00181017
-0.001988
-0.0021485
-0.00228864
-0.000370844
-0.000385052
-0.000431072
-0.000491373
-0.000495529
-0.000482863
-0.000561268
-0.000716095
-0.000845226
-0.000927067
-0.00102644
-0.00117964
-0.00135464
-0.00151177
-0.00165098
-0.00179627
-0.00195925
-0.00212911
-0.0022894
-0.00243419
-0.000412336
-0.000430099
-0.000475675
-0.000538474
-0.000567874
-0.000582659
-0.000660683
-0.000804647
-0.000944253
-0.00105129
-0.00116365
-0.00131273
-0.00148369
-0.00164744
-0.00179724
-0.00194614
-0.00210419
-0.00226738
-0.00242514
-0.00257148
-0.000454286
-0.000475535
-0.000522617
-0.000588356
-0.000637306
-0.000676368
-0.000759268
-0.000896442
-0.0010419
-0.00116781
-0.00129342
-0.00144259
-0.00161041
-0.00177721
-0.00193421
-0.00208707
-0.00224293
-0.00240117
-0.00255564
-0.00270147
-0.000496385
-0.000520943
-0.000570777
-0.000640086
-0.000704374
-0.000764178
-0.000854976
-0.000989163
-0.00113802
-0.00127757
-0.00141521
-0.00156712
-0.00173324
-0.00190117
-0.00206262
-0.00221883
-0.00237406
-0.00252894
-0.00268021
-0.00282442
-0.000538192
-0.000565824
-0.000619148
-0.000692606
-0.00076912
-0.000846227
-0.000946304
-0.00108058
-0.00123183
-0.00138101
-0.00152873
-0.00168472
-0.00185055
-0.00201882
-0.00218277
-0.00234137
-0.00249664
-0.00264934
-0.00279788
-0.00294007
-0.000579134
-0.0006096
-0.000666741
-0.000744719
-0.000831197
-0.000922536
-0.00103213
-0.00116869
-0.00132209
-0.00147805
-0.00163379
-0.00179418
-0.00196077
-0.00212923
-0.00229446
-0.00245453
-0.00260997
-0.00276125
-0.00290762
-0.00304777
-0.000618513
-0.000651572
-0.000712556
-0.00079518
-0.000889956
-0.000992901
-0.00111147
-0.00125161
-0.00140732
-0.00156817
-0.00173004
-0.00189456
-0.00206252
-0.00223126
-0.00239709
-0.00255792
-0.00271343
-0.00286371
-0.00300837
-0.00314668
-0.000655499
-0.000690912
-0.000755569
-0.000842718
-0.000944472
-0.00105682
-0.00118338
-0.0013277
-0.0014859
-0.00165041
-0.00181688
-0.00198493
-0.0021545
-0.00232369
-0.00248982
-0.00265096
-0.00280637
-0.00295586
-0.00309918
-0.0032359
-0.000689129
-0.000726652
-0.000794705
-0.000886043
-0.000993608
-0.00111348
-0.00124689
-0.00139539
-0.00155611
-0.00172344
-0.0018933
-0.00206421
-0.00223535
-0.0024051
-0.00257139
-0.00273259
-0.00288782
-0.00303672
-0.003179
-0.00331444
-0.000718345
-0.00075765
-0.000828667
-0.000923706
-0.00103601
-0.0011618
-0.00130082
-0.0014531
-0.00161613
-0.00178562
-0.00195795
-0.00213105
-0.00230352
-0.00247378
-0.00264014
-0.0028012
-0.00295613
-0.00310452
-0.00324609
-0.00338064
-0.000742132
-0.000782917
-0.000856194
-0.000954007
-0.00106981
-0.00119998
-0.00134331
-0.00149863
-0.00166348
-0.0018345
-0.00200855
-0.00218328
-0.00235684
-0.00252759
-0.00269401
-0.00285493
-0.00300954
-0.00315739
-0.00329822
-0.00343189
-0.000760207
-0.00080335
-0.000879167
-0.000979435
-0.00109819
-0.00123202
-0.00137889
-0.0015368
-0.00170334
-0.00187572
-0.00205114
-0.0022271
-0.00240154
-0.00257275
-0.00273935
-0.0029003
-0.00305484
-0.0032025
-0.00334299
-0.00347617
0.0270637
0.0181793
0.00707462
-0.000790577
-0.00381073
-0.00395292
-0.00357124
-0.00357123
-0.00396978
-0.00432932
-0.00448278
-0.00477876
-0.00523796
-0.00555307
-0.00587138
-0.00632574
-0.00666508
-0.00694051
-0.00735989
-0.00777377
-0.00806781
-0.0083635
-0.00869896
-0.0090049
-0.00924898
-0.00946656
-0.00971216
-0.00996393
-0.0101755
-0.0103875
-0.0106353
-0.0108726
-0.0110867
-0.011326
-0.0115954
-0.0118582
-0.0121134
-0.0123846
-0.0126731
-0.0129665
-0.0132641
-0.0135713
-0.0138888
-0.0142146
-0.0145484
-0.0148909
-0.0152423
-0.0156024
-0.0159713
-0.0163491
-0.0167358
-0.0171312
-0.0175354
-0.0179482
-0.0183695
-0.0187995
-0.019238
-0.0196853
-0.0201412
-0.0206059
-0.0210795
-0.0215622
-0.0220539
-0.0225549
-0.0230653
-0.0235853
-0.0241149
-0.0246543
-0.0252037
-0.0257633
-0.0263332
-0.0269137
-0.0275047
-0.0281067
-0.0287195
-0.029344
-0.0299793
-0.0306271
-0.0312855
-0.0319576
-0.0326399
-0.0333371
-0.0340444
-0.0347671
-0.0355011
-0.0362489
-0.0370119
-0.0377844
-0.0385778
-0.0393766
-0.0401982
-0.0410287
-0.0418731
-0.042739
-0.0436055
-0.044498
-0.0453928
-0.046291
-0.0471595
-0.0480063
0.025616
0.0179875
0.00715908
-0.000653659
-0.00372421
-0.00391123
-0.00354664
-0.00355447
-0.00395777
-0.00432004
-0.00447447
-0.0047714
-0.00523212
-0.00554793
-0.00586656
-0.00632189
-0.00666183
-0.00693729
-0.00735713
-0.00777161
-0.00806585
-0.00836174
-0.00869755
-0.00900382
-0.00924813
-0.00946583
-0.00971157
-0.00996351
-0.0101751
-0.0103872
-0.0106351
-0.0108725
-0.0110866
-0.0113259
-0.0115953
-0.0118582
-0.0121134
-0.0123846
-0.012673
-0.0129665
-0.0132641
-0.0135713
-0.0138888
-0.0142146
-0.0145484
-0.0148909
-0.0152423
-0.0156024
-0.0159713
-0.0163491
-0.0167358
-0.0171312
-0.0175354
-0.0179482
-0.0183695
-0.0187995
-0.019238
-0.0196853
-0.0201412
-0.0206059
-0.0210795
-0.0215622
-0.0220539
-0.0225549
-0.0230653
-0.0235853
-0.0241149
-0.0246543
-0.0252037
-0.0257633
-0.0263332
-0.0269137
-0.0275047
-0.0281067
-0.0287195
-0.029344
-0.0299793
-0.0306271
-0.0312855
-0.0319576
-0.0326399
-0.0333371
-0.0340444
-0.0347671
-0.0355011
-0.0362489
-0.0370119
-0.0377844
-0.0385778
-0.0393766
-0.0401982
-0.0410287
-0.0418731
-0.042739
-0.0436055
-0.044498
-0.0453928
-0.046291
-0.0471595
-0.0480063
0.0244715
0.0178646
0.00735802
-0.000395141
-0.00357783
-0.00385389
-0.00351806
-0.00353458
-0.00394266
-0.00430817
-0.00446458
-0.00476321
-0.0052256
-0.00554215
-0.00586128
-0.00631767
-0.00665823
-0.00693386
-0.00735429
-0.00776926
-0.00806363
-0.00835976
-0.00869594
-0.0090025
-0.00924704
-0.00946492
-0.00971086
-0.009963
-0.0101747
-0.0103868
-0.0106348
-0.0108723
-0.0110864
-0.0113257
-0.0115952
-0.0118581
-0.0121133
-0.0123845
-0.012673
-0.0129665
-0.0132641
-0.0135713
-0.0138888
-0.0142146
-0.0145484
-0.0148909
-0.0152423
-0.0156024
-0.0159713
-0.0163491
-0.0167358
-0.0171312
-0.0175354
-0.0179482
-0.0183695
-0.0187995
-0.019238
-0.0196853
-0.0201412
-0.0206059
-0.0210795
-0.0215622
-0.0220539
-0.0225549
-0.0230653
-0.0235853
-0.0241149
-0.0246543
-0.0252037
-0.0257633
-0.0263332
-0.0269137
-0.0275047
-0.0281067
-0.0287195
-0.029344
-0.0299793
-0.0306271
-0.0312855
-0.0319576
-0.0326399
-0.0333371
-0.0340444
-0.0347671
-0.0355011
-0.0362489
-0.0370119
-0.0377844
-0.0385778
-0.0393766
-0.0401982
-0.0410287
-0.0418731
-0.042739
-0.0436055
-0.044498
-0.0453928
-0.046291
-0.0471595
-0.0480064
0.0234164
0.0177074
0.00758834
-7.9671e-05
-0.00338135
-0.00377147
-0.00347459
-0.00350398
-0.0039189
-0.0042896
-0.00445068
-0.00475248
-0.00521672
-0.00553434
-0.00585409
-0.00631125
-0.0066527
-0.00692912
-0.00735016
-0.00776545
-0.00806007
-0.00835659
-0.00869311
-0.00899998
-0.00924492
-0.00946321
-0.00970952
-0.00996198
-0.0101738
-0.0103861
-0.0106342
-0.0108719
-0.0110861
-0.0113255
-0.011595
-0.011858
-0.0121132
-0.0123845
-0.012673
-0.0129665
-0.0132641
-0.0135713
-0.0138888
-0.0142146
-0.0145484
-0.0148909
-0.0152423
-0.0156024
-0.0159713
-0.0163491
-0.0167358
-0.0171312
-0.0175354
-0.0179482
-0.0183695
-0.0187995
-0.019238
-0.0196853
-0.0201412
-0.0206059
-0.0210795
-0.0215622
-0.0220539
-0.0225549
-0.0230653
-0.0235853
-0.0241149
-0.0246543
-0.0252037
-0.0257633
-0.0263332
-0.0269137
-0.0275047
-0.0281067
-0.0287195
-0.029344
-0.0299793
-0.0306271
-0.0312855
-0.0319576
-0.0326399
-0.0333371
-0.0340444
-0.0347671
-0.0355011
-0.0362489
-0.0370119
-0.0377844
-0.0385778
-0.0393766
-0.0401982
-0.0410287
-0.0418731
-0.042739
-0.0436055
-0.044498
-0.0453928
-0.0462911
-0.0471596
-0.0480066
0.0223524
0.0174787
0.00781349
0.000251409
-0.00316535
-0.00367704
-0.00342322
-0.00346534
-0.00388633
-0.00426332
-0.00443188
-0.00473823
-0.00520439
-0.00552383
-0.00584443
-0.00630164
-0.00664435
-0.00692243
-0.00734392
-0.00775918
-0.00805434
-0.0083515
-0.00868819
-0.00899529
-0.00924092
-0.00946
-0.00970693
-0.0099599
-0.0101722
-0.0103847
-0.010633
-0.0108709
-0.0110854
-0.011325
-0.0115946
-0.0118576
-0.0121129
-0.0123843
-0.0126728
-0.0129664
-0.013264
-0.0135712
-0.0138888
-0.0142146
-0.0145484
-0.0148909
-0.0152423
-0.0156024
-0.0159713
-0.0163491
-0.0167358
-0.0171312
-0.0175354
-0.0179482
-0.0183695
-0.0187995
-0.019238
-0.0196853
-0.0201412
-0.0206059
-0.0210795
-0.0215622
-0.0220539
-0.0225549
-0.0230653
-0.0235853
-0.0241149
-0.0246543
-0.0252037
-0.0257633
-0.0263332
-0.0269137
-0.0275047
-0.0281067
-0.0287195
-0.029344
-0.0299793
-0.0306271
-0.0312855
-0.0319576
-0.0326399
-0.0333371
-0.0340444
-0.0347671
-0.0355011
-0.0362489
-0.0370119
-0.0377844
-0.0385778
-0.0393766
-0.0401982
-0.0410287
-0.0418731
-0.042739
-0.0436055
-0.044498
-0.0453928
-0.0462911
-0.0471597
-0.0480068
0.0212877
0.0171888
0.00803199
0.000589607
-0.00293928
-0.00357827
-0.00337111
-0.0034241
-0.00384881
-0.00423189
-0.00440944
-0.00472104
-0.0051891
-0.00551109
-0.00583258
-0.00628898
-0.00663321
-0.00691375
-0.00733533
-0.00775008
-0.00804613
-0.00834419
-0.00868081
-0.00898797
-0.00923456
-0.00945488
-0.00970266
-0.00995634
-0.0101693
-0.0103823
-0.0106308
-0.0108691
-0.0110841
-0.0113241
-0.0115937
-0.0118568
-0.0121124
-0.0123839
-0.0126725
-0.0129661
-0.0132638
-0.0135711
-0.0138887
-0.0142145
-0.0145483
-0.0148908
-0.0152423
-0.0156024
-0.0159713
-0.0163491
-0.0167358
-0.0171312
-0.0175354
-0.0179482
-0.0183695
-0.0187995
-0.019238
-0.0196853
-0.0201412
-0.0206059
-0.0210795
-0.0215622
-0.0220539
-0.0225549
-0.0230653
-0.0235853
-0.0241149
-0.0246543
-0.0252037
-0.0257633
-0.0263332
-0.0269137
-0.0275047
-0.0281067
-0.0287195
-0.029344
-0.0299793
-0.0306271
-0.0312855
-0.0319576
-0.0326399
-0.0333371
-0.0340444
-0.0347671
-0.0355011
-0.0362489
-0.0370119
-0.0377844
-0.0385778
-0.0393766
-0.0401982
-0.0410287
-0.0418731
-0.042739
-0.0436055
-0.044498
-0.0453928
-0.0462912
-0.0471599
-0.0480071
0.020241
0.0168493
0.00824051
0.000931111
-0.00270505
-0.00347618
-0.00331973
-0.00338221
-0.00380849
-0.00419715
-0.00438438
-0.00470178
-0.00517193
-0.0054969
-0.00581923
-0.0062742
-0.00662013
-0.00690356
-0.00732479
-0.00773854
-0.00803569
-0.00833486
-0.00867116
-0.00897816
-0.00922594
-0.00944782
-0.00969663
-0.00995118
-0.0101652
-0.0103788
-0.0106276
-0.0108664
-0.0110822
-0.0113227
-0.0115924
-0.0118556
-0.0121114
-0.0123832
-0.012672
-0.0129657
-0.0132635
-0.0135709
-0.0138885
-0.0142144
-0.0145482
-0.0148908
-0.0152422
-0.0156024
-0.0159713
-0.0163491
-0.0167358
-0.0171312
-0.0175354
-0.0179482
-0.0183695
-0.0187995
-0.019238
-0.0196853
-0.0201412
-0.0206059
-0.0210795
-0.0215622
-0.0220539
-0.0225549
-0.0230653
-0.0235853
-0.0241149
-0.0246543
-0.0252037
-0.0257633
-0.0263332
-0.0269137
-0.0275047
-0.0281067
-0.0287195
-0.029344
-0.0299793
-0.0306271
-0.0312855
-0.0319576
-0.0326399
-0.0333371
-0.0340444
-0.0347671
-0.0355011
-0.0362489
-0.0370119
-0.0377844
-0.0385778
-0.0393767
-0.0401982
-0.0410287
-0.0418731
-0.042739
-0.0436055
-0.044498
-0.0453928
-0.0462912
-0.0471601
-0.0480075
0.019226
0.0164622
0.00843017
0.00127258
-0.00246148
-0.00336838
-0.00326819
-0.0033403
-0.00376645
-0.00415989
-0.00435717
-0.00468102
-0.00515355
-0.00548166
-0.00580483
-0.00625814
-0.00660583
-0.00689237
-0.00731298
-0.00772536
-0.00802365
-0.00832399
-0.00865979
-0.0089665
-0.00921557
-0.00943925
-0.00968915
-0.00994466
-0.01016
-0.0103744
-0.0106233
-0.0108627
-0.0110797
-0.0113208
-0.0115906
-0.0118539
-0.0121102
-0.0123823
-0.0126712
-0.012965
-0.013263
-0.0135705
-0.0138882
-0.0142142
-0.0145481
-0.0148907
-0.0152422
-0.0156024
-0.0159713
-0.0163491
-0.0167358
-0.0171312
-0.0175354
-0.0179482
-0.0183695
-0.0187995
-0.019238
-0.0196853
-0.0201412
-0.0206059
-0.0210795
-0.0215622
-0.0220539
-0.0225549
-0.0230653
-0.0235853
-0.0241149
-0.0246543
-0.0252037
-0.0257633
-0.0263332
-0.0269137
-0.0275047
-0.0281067
-0.0287195
-0.029344
-0.0299793
-0.0306271
-0.0312855
-0.0319576
-0.0326399
-0.0333371
-0.0340444
-0.0347671
-0.0355011
-0.0362489
-0.0370119
-0.0377844
-0.0385778
-0.0393767
-0.0401982
-0.0410287
-0.0418731
-0.042739
-0.0436055
-0.044498
-0.0453929
-0.0462913
-0.0471604
-0.0480079
0.0182506
0.016028
0.00859387
0.00161369
-0.00220568
-0.00325247
-0.00321636
-0.00329968
-0.00372379
-0.00412066
-0.00432809
-0.00465899
-0.00513415
-0.00546552
-0.00578963
-0.00624119
-0.00659064
-0.00688045
-0.00730037
-0.00771117
-0.00801056
-0.00831208
-0.00864728
-0.00895361
-0.00920406
-0.00942965
-0.00968068
-0.00993716
-0.0101539
-0.0103692
-0.0106184
-0.0108584
-0.0110767
-0.0113185
-0.0115883
-0.0118518
-0.0121086
-0.0123812
-0.0126703
-0.0129642
-0.0132623
-0.01357
-0.0138878
-0.0142139
-0.0145479
-0.0148905
-0.0152421
-0.0156023
-0.0159713
-0.0163491
-0.0167358
-0.0171312
-0.0175354
-0.0179482
-0.0183695
-0.0187995
-0.019238
-0.0196853
-0.0201412
-0.0206059
-0.0210795
-0.0215622
-0.0220539
-0.0225549
-0.0230653
-0.0235853
-0.0241149
-0.0246543
-0.0252037
-0.0257633
-0.0263332
-0.0269137
-0.0275047
-0.0281067
-0.0287195
-0.029344
-0.0299793
-0.0306271
-0.0312855
-0.0319576
-0.0326399
-0.0333371
-0.0340444
-0.0347671
-0.0355011
-0.0362489
-0.0370119
-0.0377844
-0.0385778
-0.0393767
-0.0401982
-0.0410287
-0.0418731
-0.042739
-0.0436055
-0.044498
-0.0453929
-0.0462914
-0.0471607
-0.0480084
0.0173193
0.015551
0.00872844
0.00195403
-0.00193714
-0.00312799
-0.00316493
-0.00326164
-0.00368137
-0.00407973
-0.0042971
-0.0046356
-0.00511376
-0.00544861
-0.00577378
-0.00622347
-0.00657465
-0.00686791
-0.0072872
-0.0076963
-0.00799672
-0.00829944
-0.008634
-0.0089399
-0.00919176
-0.00941936
-0.00967156
-0.00992903
-0.0101472
-0.0103635
-0.0106129
-0.0108537
-0.0110732
-0.0113159
-0.0115858
-0.0118495
-0.0121068
-0.0123798
-0.0126691
-0.0129632
-0.0132615
-0.0135694
-0.0138873
-0.0142135
-0.0145476
-0.0148903
-0.0152419