/*--------------------------------*- C++ -*----------------------------------*\
| =========                 |                                                 |
| \\      /  F ield         | OpenFOAM: The Open Source CFD Toolbox           |
|  \\    /   O peration     | Version:  2106                                  |
|   \\  /    A nd           | Website:  www.openfoam.com                      |
|    \\/     M anipulation  |                                                 |
\*---------------------------------------------------------------------------*/
FoamFile
{
    version     2.0;
    format      ascii;
    arch        "LSB;label=32;scalar=64";
    class       surfaceScalarField;
    location    "0.155";
    object      phi;
}
// * * * * * * * * * * * * * * * * * * * * * * * * * * * * * * * * * * * * * //

dimensions      [0 3 -1 0 0 0 0];

oriented        oriented;

internalField   nonuniform List<scalar> 
19000
(
1.17152e-06
3.64047e-07
1.15308e-06
1.63667e-07
1.17354e-06
-7.63777e-07
1.17259e-06
-1.02144e-06
1.17959e-06
-3.21781e-07
1.16811e-06
4.89879e-07
1.17529e-06
5.99809e-07
1.16758e-06
1.71531e-07
1.17328e-06
-1.30972e-07
1.16669e-06
-3.60755e-07
1.18821e-06
-1.30999e-07
1.15416e-06
-1.04336e-07
1.14964e-06
9.85587e-08
1.16584e-06
3.21324e-07
1.16661e-06
1.47475e-07
1.15937e-06
1.55062e-07
1.1644e-06
1.10079e-07
1.14578e-06
-8.34795e-08
1.15242e-06
9.55549e-08
-2.69216e-07
1.08853e-06
1.22393e-06
3.6438e-07
1.20917e-06
1.7843e-07
1.22759e-06
-7.82197e-07
1.22428e-06
-1.01814e-06
1.2344e-06
-3.31895e-07
1.22827e-06
4.96004e-07
1.22915e-06
5.98934e-07
1.22719e-06
1.73489e-07
1.22948e-06
-1.33261e-07
1.22403e-06
-3.55313e-07
1.24126e-06
-1.48229e-07
1.215e-06
-7.80767e-08
1.20127e-06
1.12292e-07
1.22878e-06
2.93815e-07
1.21777e-06
1.58485e-07
1.22642e-06
1.46408e-07
1.21322e-06
1.23286e-07
1.21641e-06
-8.66761e-08
1.19747e-06
1.14496e-07
-2.47306e-07
1.17556e-06
1.27839e-06
3.68776e-07
1.26825e-06
1.88573e-07
1.28288e-06
-7.96828e-07
1.27974e-06
-1.015e-06
1.28912e-06
-3.4128e-07
1.29169e-06
4.93435e-07
1.28678e-06
6.03843e-07
1.29071e-06
1.69561e-07
1.28795e-06
-1.30503e-07
1.28614e-06
-3.53501e-07
1.29521e-06
-1.57291e-07
1.28133e-06
-6.42035e-08
1.25953e-06
1.34092e-07
1.28581e-06
2.67539e-07
1.27699e-06
1.67306e-07
1.2843e-06
1.39094e-07
1.27651e-06
1.31075e-07
1.27464e-06
-8.48038e-08
1.26993e-06
1.19202e-07
-2.20164e-07
1.24279e-06
1.33684e-06
3.76042e-07
1.33129e-06
1.94119e-07
1.33983e-06
-8.0537e-07
1.33886e-06
-1.01403e-06
1.34582e-06
-3.48239e-07
1.35573e-06
4.8353e-07
1.34934e-06
6.10227e-07
1.35557e-06
1.6333e-07
1.34947e-06
-1.24395e-07
1.34934e-06
-3.53371e-07
1.35217e-06
-1.60125e-07
1.34663e-06
-5.86645e-08
1.32718e-06
1.53538e-07
1.34304e-06
2.51678e-07
1.34174e-06
1.68608e-07
1.34548e-06
1.35359e-07
1.34249e-06
1.34065e-07
1.33793e-06
-8.02479e-08
1.3364e-06
1.20739e-07
-1.91254e-07
1.30749e-06
1.40053e-06
3.83861e-07
1.39823e-06
1.96419e-07
1.39952e-06
-8.06659e-07
1.40082e-06
-1.01532e-06
1.40626e-06
-3.53678e-07
1.42034e-06
4.69448e-07
1.41693e-06
6.13631e-07
1.42166e-06
1.58605e-07
1.41418e-06
-1.16914e-07
1.41293e-06
-3.5213e-07
1.41262e-06
-1.59811e-07
1.41146e-06
-5.74986e-08
1.39951e-06
1.65482e-07
1.40757e-06
2.43614e-07
1.40907e-06
1.67116e-07
1.41242e-06
1.32005e-07
1.41044e-06
1.36047e-07
1.40474e-06
-7.45536e-08
1.40396e-06
1.21521e-07
-1.61346e-07
1.37405e-06
1.46983e-06
3.89707e-07
1.46902e-06
1.97227e-07
1.46336e-06
-8.00999e-07
1.46537e-06
-1.01733e-06
1.47144e-06
-3.59751e-07
1.48747e-06
4.53418e-07
1.48869e-06
6.12406e-07
1.49014e-06
1.57163e-07
1.48175e-06
-1.08527e-07
1.47816e-06
-3.4854e-07
1.47626e-06
-1.5791e-07
1.47771e-06
-5.89528e-08
1.47295e-06
1.70241e-07
1.47836e-06
2.38208e-07
1.47941e-06
1.66064e-07
1.48246e-06
1.28958e-07
1.48084e-06
1.37662e-07
1.47356e-06
-6.72706e-08
1.47384e-06
1.2124e-07
-1.30705e-07
1.4432e-06
1.54399e-06
3.91929e-07
1.54367e-06
1.97554e-07
1.53237e-06
-7.89705e-07
1.53307e-06
-1.01803e-06
1.54107e-06
-3.67751e-07
1.55835e-06
4.36139e-07
1.56325e-06
6.07503e-07
1.56159e-06
1.58823e-07
1.55198e-06
-9.89134e-08
1.54615e-06
-3.42711e-07
1.5431e-06
-1.54863e-07
1.54627e-06
-6.21192e-08
1.54685e-06
1.69658e-07
1.55238e-06
2.32677e-07
1.55272e-06
1.65724e-07
1.55466e-06
1.27025e-07
1.55328e-06
1.39039e-07
1.54427e-06
-5.82556e-08
1.54571e-06
1.19799e-07
-1.00108e-07
1.51511e-06
1.62173e-06
3.90323e-07
1.62193e-06
1.97356e-07
1.60674e-06
-7.74515e-07
1.60461e-06
-1.0159e-06
1.61402e-06
-3.77156e-07
1.63239e-06
4.17769e-07
1.63936e-06
6.00532e-07
1.63578e-06
1.62403e-07
1.62502e-06
-8.8152e-08
1.61754e-06
-3.35236e-07
1.61347e-06
-1.50788e-07
1.61744e-06
-6.6094e-08
1.62158e-06
1.6552e-07
1.62786e-06
2.26398e-07
1.62809e-06
1.65493e-07
1.62881e-06
1.26303e-07
1.62773e-06
1.40127e-07
1.61714e-06
-4.76742e-08
1.61972e-06
1.17227e-07
-7.04495e-08
1.59006e-06
1.70207e-06
3.85828e-07
1.70337e-06
1.96059e-07
1.68599e-06
-7.57141e-07
1.68034e-06
-1.01024e-06
1.68931e-06
-3.86125e-07
1.70823e-06
3.98849e-07
1.71634e-06
5.92418e-07
1.71236e-06
1.66381e-07
1.7012e-06
-7.69918e-08
1.69271e-06
-3.26743e-07
1.68769e-06
-1.45773e-07
1.69154e-06
-6.9939e-08
1.69765e-06
1.59405e-07
1.70434e-06
2.19712e-07
1.70499e-06
1.6484e-07
1.70487e-06
1.2643e-07
1.70447e-06
1.40519e-07
1.69272e-06
-3.59155e-08
1.69625e-06
1.13689e-07
-4.25409e-08
1.66835e-06
1.78481e-06
3.79741e-07
1.78765e-06
1.93221e-07
1.76948e-06
-7.38974e-07
1.76029e-06
-1.00106e-06
1.76678e-06
-3.92611e-07
1.78528e-06
3.80351e-07
1.79441e-06
5.83283e-07
1.79147e-06
1.69328e-07
1.7809e-06
-6.64222e-08
1.77189e-06
-3.17736e-07
1.76608e-06
-1.39965e-07
1.76901e-06
-7.28712e-08
1.77582e-06
1.526e-07
1.78236e-06
2.13174e-07
1.78381e-06
1.63388e-07
1.78321e-06
1.27027e-07
1.78399e-06
1.39742e-07
1.7716e-06
-2.35279e-08
1.77579e-06
1.09505e-07
-1.70236e-08
1.75027e-06
1.8704e-06
3.73085e-07
1.87481e-06
1.88818e-07
1.85673e-06
-7.20899e-07
1.84444e-06
-9.88769e-07
1.84713e-06
-3.95302e-07
1.86433e-06
3.63159e-07
1.87469e-06
5.72917e-07
1.87374e-06
1.70284e-07
1.86449e-06
-5.7173e-08
1.85528e-06
-3.08531e-07
1.84892e-06
-1.336e-07
1.85047e-06
-7.44203e-08
1.85714e-06
1.45929e-07
1.86308e-06
2.07227e-07
1.86558e-06
1.60891e-07
1.86475e-06
1.27863e-07
1.86688e-06
1.37606e-07
1.85444e-06
-1.10844e-08
1.8588e-06
1.05142e-07
5.66414e-09
1.83611e-06
1.95952e-06
3.66405e-07
1.96521e-06
1.8313e-07
1.94757e-06
-7.03262e-07
1.93281e-06
-9.74012e-07
1.93148e-06
-3.93963e-07
1.94699e-06
3.47649e-07
1.95871e-06
5.61194e-07
1.96002e-06
1.68975e-07
1.95233e-06
-4.9489e-08
1.94304e-06
-2.99241e-07
1.93642e-06
-1.26977e-07
1.93645e-06
-7.44521e-08
1.94272e-06
1.39664e-07
1.94782e-06
2.02122e-07
1.95146e-06
1.57256e-07
1.95048e-06
1.28837e-07
1.95378e-06
1.34307e-07
1.94175e-06
9.42876e-10
1.94574e-06
1.01154e-07
2.52705e-08
1.92614e-06
2.05272e-06
3.59876e-07
2.05934e-06
1.76506e-07
2.0421e-06
-6.8602e-07
2.02551e-06
-9.57419e-07
2.02077e-06
-3.89225e-07
2.03476e-06
3.33657e-07
2.04774e-06
5.48215e-07
2.051e-06
1.65711e-07
2.04472e-06
-4.32106e-08
2.0353e-06
-2.89817e-07
2.02873e-06
-1.20403e-07
2.02734e-06
-7.30604e-08
2.03335e-06
1.33645e-07
2.03755e-06
1.97928e-07
2.04224e-06
1.52566e-07
2.04117e-06
1.299e-07
2.04514e-06
1.30337e-07
2.03389e-06
1.21996e-08
2.037e-06
9.80437e-08
4.17554e-08
2.02051e-06
2.15038e-06
3.53497e-07
2.15768e-06
1.6921e-07
2.14061e-06
-6.68949e-07
2.12268e-06
-9.39488e-07
2.11554e-06
-3.82086e-07
2.12848e-06
3.20716e-07
2.14247e-06
5.34226e-07
2.14708e-06
1.61098e-07
2.14187e-06
-3.8006e-08
2.13218e-06
-2.80123e-07
2.12592e-06
-1.14142e-07
2.12327e-06
-7.04154e-08
2.12939e-06
1.27532e-07
2.13273e-06
1.94588e-07
2.13825e-06
1.47042e-07
2.13718e-06
1.30976e-07
2.14121e-06
1.263e-07
2.131e-06
2.24115e-08
2.13293e-06
9.61144e-08
5.53176e-08
2.11937e-06
2.25276e-06
3.47222e-07
2.26059e-06
1.61385e-07
2.24346e-06
-6.5182e-07
2.22452e-06
-9.20547e-07
2.2159e-06
-3.73471e-07
2.22828e-06
3.0834e-07
2.24302e-06
5.19488e-07
2.24837e-06
1.55747e-07
2.24394e-06
-3.35764e-08
2.23382e-06
-2.69998e-07
2.22807e-06
-1.08395e-07
2.22432e-06
-6.6667e-08
2.23082e-06
1.21031e-07
2.23346e-06
1.91951e-07
2.23951e-06
1.40995e-07
2.23858e-06
1.31901e-07
2.2421e-06
1.22784e-07
2.23314e-06
3.13666e-08
2.23387e-06
9.53826e-08
6.63949e-08
2.2228e-06
2.36008e-06
3.41022e-07
2.36837e-06
1.53086e-07
2.35103e-06
-6.34472e-07
2.33125e-06
-9.00774e-07
2.32182e-06
-3.64038e-07
2.33398e-06
2.96181e-07
2.34928e-06
5.04187e-07
2.3549e-06
1.50128e-07
2.35107e-06
-2.97488e-08
2.34038e-06
-2.59304e-07
2.33528e-06
-1.03299e-07
2.33054e-06
-6.19254e-08
2.33757e-06
1.14003e-07
2.33971e-06
1.8981e-07
2.34592e-06
1.34783e-07
2.34538e-06
1.3244e-07
2.34791e-06
1.2025e-07
2.34032e-06
3.89564e-08
2.34008e-06
9.56221e-08
7.55487e-08
2.33093e-06
2.47253e-06
3.34889e-07
2.48129e-06
1.44323e-07
2.46364e-06
-6.16817e-07
2.44311e-06
-8.80249e-07
2.43324e-06
-3.54166e-07
2.44536e-06
2.8406e-07
2.46113e-06
4.88422e-07
2.46671e-06
1.4455e-07
2.46343e-06
-2.64739e-08
2.45207e-06
-2.47938e-07
2.4477e-06
-9.89286e-08
2.44206e-06
-5.62901e-08
2.44958e-06
1.06483e-07
2.45149e-06
1.879e-07
2.45748e-06
1.28791e-07
2.45759e-06
1.32334e-07
2.45888e-06
1.18958e-07
2.45259e-06
4.52485e-08
2.45175e-06
9.64632e-08
8.33015e-08
2.44399e-06
2.59035e-06
3.28832e-07
2.59959e-06
1.35089e-07
2.58159e-06
-5.98821e-07
2.56034e-06
-8.59001e-07
2.55023e-06
-3.44056e-07
2.56237e-06
2.7192e-07
2.57857e-06
4.72219e-07
2.58391e-06
1.39208e-07
2.58122e-06
-2.3778e-08
2.56913e-06
-2.35847e-07
2.5655e-06
-9.52982e-08
2.5591e-06
-4.98903e-08
2.56694e-06
9.86448e-08
2.56892e-06
1.85917e-07
2.57431e-06
1.23395e-07
2.57528e-06
1.31371e-07
2.57534e-06
1.18897e-07
2.57003e-06
5.05612e-08
2.56907e-06
9.74139e-08
9.01054e-08
2.56227e-06
2.7138e-06
3.22864e-07
2.72351e-06
1.25377e-07
2.70517e-06
-5.80479e-07
2.6832e-06
-8.37031e-07
2.67296e-06
-3.33816e-07
2.68509e-06
2.59784e-07
2.70175e-06
4.55567e-07
2.70672e-06
1.34236e-07
2.70466e-06
-2.17143e-08
2.69183e-06
-2.23024e-07
2.68889e-06
-9.2358e-08
2.68191e-06
-4.29113e-08
2.68979e-06
9.07641e-08
2.69218e-06
1.83534e-07
2.69664e-06
1.18928e-07
2.69856e-06
1.29453e-07
2.69764e-06
1.19817e-07
2.69287e-06
5.53344e-08
2.69224e-06
9.80387e-08
9.62583e-08
2.68609e-06
2.84314e-06
3.16997e-07
2.85332e-06
1.15187e-07
2.83465e-06
-5.61807e-07
2.81195e-06
-8.14327e-07
2.80166e-06
-3.23524e-07
2.81373e-06
2.4771e-07
2.83086e-06
4.38433e-07
2.83537e-06
1.29733e-07
2.83398e-06
-2.03261e-08
2.82048e-06
-2.09521e-07
2.81811e-06
-8.99921e-08
2.8108e-06
-3.56006e-08
2.81839e-06
8.31752e-08
2.82148e-06
1.80445e-07
2.82477e-06
1.15638e-07
2.82758e-06
1.26639e-07
2.8261e-06
1.213e-07
2.82146e-06
5.99754e-08
2.82141e-06
9.80894e-08
1.01842e-07
2.81582e-06
2.97865e-06
3.11245e-07
2.9893e-06
1.04532e-07
2.97033e-06
-5.42836e-07
2.94687e-06
-7.90869e-07
2.9366e-06
-3.13252e-07
2.94853e-06
2.3578e-07
2.96619e-06
4.20777e-07
2.97015e-06
1.25773e-07
2.96944e-06
-1.96214e-08
2.95538e-06
-1.95456e-07
2.9534e-06
-8.80126e-08
2.94606e-06
-2.82651e-08
2.953e-06
7.62354e-08
2.95704e-06
1.76403e-07
2.95905e-06
1.13633e-07
2.96253e-06
1.23163e-07
2.96095e-06
1.2288e-07
2.95618e-06
6.47395e-08
2.95675e-06
9.75198e-08
1.06775e-07
2.95182e-06
3.12064e-06
3.05615e-07
3.13174e-06
9.34315e-08
3.11251e-06
-5.23611e-07
3.08827e-06
-7.66624e-07
3.0781e-06
-3.0308e-07
3.08979e-06
2.24089e-07
3.108e-06
4.02565e-07
3.11137e-06
1.224e-07
3.11131e-06
-1.95582e-08
3.09686e-06
-1.81014e-07
3.09503e-06
-8.61744e-08
3.088e-06
-2.12402e-08
3.09396e-06
7.02795e-08
3.09909e-06
1.71272e-07
3.09993e-06
1.1279e-07
3.10366e-06
1.19434e-07
3.1024e-06
1.24145e-07
3.09744e-06
6.9698e-08
3.0985e-06
9.6457e-08
1.10878e-07
3.0944e-06
3.26941e-06
3.00114e-07
3.28092e-06
8.19224e-08
3.26151e-06
-5.04197e-07
3.23643e-06
-7.41551e-07
3.22645e-06
-2.93101e-07
3.23781e-06
2.12736e-07
3.25659e-06
3.83778e-07
3.25937e-06
1.19623e-07
3.25985e-06
-2.00369e-08
3.24528e-06
-1.66447e-07
3.24329e-06
-8.41832e-08
3.2369e-06
-1.48522e-08
3.24162e-06
6.55649e-08
3.24779e-06
1.65105e-07
3.24782e-06
1.12758e-07
3.25137e-06
1.15885e-07
3.25066e-06
1.24855e-07
3.24561e-06
7.47481e-08
3.24693e-06
9.51306e-08
1.13965e-07
3.24385e-06
3.4253e-06
2.94744e-07
3.43717e-06
7.00551e-08
3.41765e-06
-4.84676e-07
3.39169e-06
-7.15596e-07
3.38201e-06
-2.83414e-07
3.39292e-06
2.01821e-07
3.41228e-06
3.6442e-07
3.4145e-06
1.17398e-07
3.41536e-06
-2.08958e-08
3.40097e-06
-1.52058e-07
3.39853e-06
-8.17367e-08
3.39304e-06
-9.3647e-09
3.39641e-06
6.21936e-08
3.40336e-06
1.58161e-07
3.40301e-06
1.13103e-07
3.40611e-06
1.12787e-07
3.40599e-06
1.24976e-07
3.40103e-06
7.97043e-08
3.40239e-06
9.37682e-08
1.15915e-07
3.40044e-06
3.58865e-06
2.89503e-07
3.60081e-06
5.78978e-08
3.58128e-06
-4.65152e-07
3.55439e-06
-6.88699e-07
3.5451e-06
-2.74125e-07
3.55549e-06
1.91434e-07
3.57537e-06
3.44533e-07
3.57714e-06
1.15631e-07
3.57817e-06
-2.19244e-08
3.56429e-06
-1.38176e-07
3.5611e-06
-7.85557e-08
3.55665e-06
-4.91318e-09
3.55881e-06
6.00399e-08
3.56611e-06
1.50856e-07
3.56578e-06
1.13434e-07
3.56834e-06
1.10227e-07
3.56871e-06
1.24602e-07
3.56403e-06
8.43899e-08
3.56526e-06
9.2535e-08
1.167e-07
3.56448e-06
3.75983e-06
2.84384e-07
3.77218e-06
4.5538e-08
3.75278e-06
-4.45746e-07
3.72488e-06
-6.60795e-07
3.71608e-06
-2.65332e-07
3.72588e-06
1.8164e-07
3.7462e-06
3.24205e-07
3.74767e-06
1.14169e-07
3.7486e-06
-2.28562e-08
3.73556e-06
-1.25139e-07
3.73144e-06
-7.44319e-08
3.72799e-06
-1.4697e-09
3.72924e-06
5.8797e-08
3.73645e-06
1.43646e-07
3.73639e-06
1.13488e-07
3.73848e-06
1.08136e-07
3.73923e-06
1.23852e-07
3.73491e-06
8.87092e-08
3.73594e-06
9.15122e-08
1.16374e-07
3.73626e-06
3.9392e-06
2.79371e-07
3.95166e-06
3.30835e-08
3.93251e-06
-4.26601e-07
3.90354e-06
-6.31824e-07
3.89533e-06
-2.57121e-07
3.9045e-06
1.72472e-07
3.92512e-06
3.03581e-07
3.92649e-06
1.12799e-07
3.92703e-06
-2.33923e-08
3.91513e-06
-1.13238e-07
3.90999e-06
-6.93003e-08
3.90734e-06
1.18784e-09
3.90808e-06
5.80537e-08
3.91485e-06
1.36879e-07
3.91515e-06
1.13184e-07
3.91691e-06
1.06382e-07
3.91798e-06
1.22773e-07
3.91405e-06
9.26403e-08
3.91482e-06
9.07445e-08
1.1506e-07
3.91613e-06
4.12718e-06
2.74441e-07
4.1396e-06
2.06648e-08
4.12087e-06
-4.07874e-07
4.09078e-06
-6.01734e-07
4.08321e-06
-2.49552e-07
4.09177e-06
1.6391e-07
4.11248e-06
2.82873e-07
4.11402e-06
1.11257e-07
4.11387e-06
-2.32353e-08
4.1033e-06
-1.0267e-07
4.09725e-06
-6.32511e-08
4.09504e-06
3.39718e-09
4.09567e-06
5.74212e-08
4.10183e-06
1.30719e-07
4.1024e-06
1.12619e-07
4.10396e-06
1.04815e-07
4.10537e-06
1.21369e-07
4.10187e-06
9.61354e-08
4.10233e-06
9.02874e-08
1.12932e-07
4.10446e-06
4.32418e-06
2.69565e-07
4.33641e-06
8.43472e-09
4.31827e-06
-3.89738e-07
4.28703e-06
-5.70492e-07
4.28012e-06
-2.42646e-07
4.28816e-06
1.55872e-07
4.30867e-06
2.62367e-07
4.31069e-06
1.09234e-07
4.30958e-06
-2.21271e-08
4.30039e-06
-9.34768e-08
4.2937e-06
-5.65652e-08
4.29152e-06
5.58216e-09
4.29234e-06
5.66015e-08
4.29792e-06
1.25142e-07
4.29856e-06
1.11976e-07
4.30002e-06
1.03351e-07
4.3018e-06
1.19589e-07
4.29881e-06
9.91289e-08
4.29892e-06
9.01768e-08
1.10209e-07
4.30164e-06
4.53064e-06
2.64704e-07
4.5425e-06
-3.43455e-09
4.52514e-06
-3.72372e-07
4.49274e-06
-5.38093e-07
4.48647e-06
-2.36375e-07
4.49412e-06
1.48217e-07
4.5141e-06
2.42389e-07
4.5169e-06
1.06433e-07
4.51467e-06
-1.98943e-08
4.50673e-06
-8.5541e-08
4.49983e-06
-4.96565e-08
4.49728e-06
8.12463e-09
4.49837e-06
5.55126e-08
4.50361e-06
1.19907e-07
4.50412e-06
1.11461e-07
4.50549e-06
1.01987e-07
4.5077e-06
1.17378e-07
4.50529e-06
1.0154e-07
4.50507e-06
9.03948e-08
1.07122e-07
4.50815e-06
4.74701e-06
2.5981e-07
4.75832e-06
-1.47493e-08
4.74191e-06
-3.55961e-07
4.70839e-06
-5.04573e-07
4.70266e-06
-2.30642e-07
4.71016e-06
1.40719e-07
4.72923e-06
2.2332e-07
4.73308e-06
1.02583e-07
4.72968e-06
-1.64947e-08
4.72272e-06
-7.85808e-08
4.71606e-06
-4.29953e-08
4.71289e-06
1.12859e-08
4.71414e-06
5.42707e-08
4.71934e-06
1.14706e-07
4.71969e-06
1.11108e-07
4.72079e-06
1.00888e-07
4.72344e-06
1.14723e-07
4.72176e-06
1.03221e-07
4.72124e-06
9.09181e-08
1.03854e-07
4.72451e-06
4.97378e-06
2.54826e-07
4.98433e-06
-2.52946e-08
4.96905e-06
-3.40688e-07
4.9345e-06
-4.70019e-07
4.92914e-06
-2.25286e-07
4.93676e-06
1.33104e-07
4.95452e-06
2.0556e-07
4.95962e-06
9.74828e-08
4.95518e-06
-1.205e-08
4.94878e-06
-7.21808e-08
4.94278e-06
-3.70019e-08
4.93897e-06
1.50976e-08
4.94006e-06
5.31814e-08
4.94549e-06
1.09275e-07
4.94582e-06
1.10775e-07
4.94649e-06
1.00226e-07
4.94947e-06
1.1174e-07
4.94866e-06
1.04036e-07
4.94792e-06
9.16508e-08
1.00566e-07
4.95121e-06
5.21146e-06
2.49685e-07
5.221e-06
-3.48428e-08
5.20704e-06
-3.26726e-07
5.1716e-06
-4.34575e-07
5.16638e-06
-2.20072e-07
5.17445e-06
1.25038e-07
5.19052e-06
1.8949e-07
5.19691e-06
9.10883e-08
5.19177e-06
-6.9033e-09
5.18541e-06
-6.58242e-08
5.18039e-06
-3.19804e-08
5.17613e-06
1.93522e-08
5.17667e-06
5.26496e-08
5.18242e-06
1.0352e-07
5.18307e-06
1.10126e-07
5.18318e-06
1.00121e-07
5.18626e-06
1.08653e-07
5.18638e-06
1.03918e-07
5.18562e-06
9.2412e-08
9.74356e-08
5.18875e-06
5.46056e-06
2.44313e-07
5.46887e-06
-4.31507e-08
5.45637e-06
-3.1423e-07
5.42025e-06
-3.98452e-07
5.41487e-06
-2.14694e-07
5.42374e-06
1.16169e-07
5.43782e-06
1.75408e-07
5.44536e-06
8.35492e-08
5.44002e-06
-1.55893e-09
5.43322e-06
-5.90281e-08
5.42927e-06
-2.80231e-08
5.42493e-06
2.36828e-08
5.42463e-06
5.29557e-08
5.43051e-06
9.76353e-08
5.43187e-06
1.08767e-07
5.43152e-06
1.00472e-07
5.43436e-06
1.05818e-07
5.4354e-06
1.02876e-07
5.43481e-06
9.29957e-08
9.45903e-08
5.43766e-06
5.72164e-06
2.38627e-07
5.72847e-06
-4.99765e-08
5.71756e-06
-3.03322e-07
5.68105e-06
-3.61937e-07
5.67515e-06
-2.08797e-07
5.68514e-06
1.06178e-07
5.69709e-06
1.63454e-07
5.7054e-06
7.52395e-08
5.70049e-06
3.35971e-09
5.69285e-06
-5.13958e-08
5.68984e-06
-2.50056e-08
5.68591e-06
2.76077e-08
5.68463e-06
5.42326e-08
5.69031e-06
9.19639e-08
5.69259e-06
1.06478e-07
5.69212e-06
1.00948e-07
5.69444e-06
1.03493e-07
5.6962e-06
1.01123e-07
5.69602e-06
9.31736e-08
9.21145e-08
5.6985e-06
5.99528e-06
2.32535e-07
6.00039e-06
-5.508e-08
5.99115e-06
-2.94084e-07
5.95461e-06
-3.25399e-07
5.94779e-06
-2.01977e-07
5.95915e-06
9.48237e-08
5.96903e-06
1.53567e-07
5.97755e-06
6.67231e-08
5.97368e-06
7.22855e-09
5.96507e-06
-4.27814e-08
5.96255e-06
-2.24906e-08
5.95956e-06
3.05981e-08
5.95741e-06
5.63883e-08
5.96239e-06
8.69752e-08
5.96568e-06
1.0319e-07
5.96548e-06
1.01149e-07
5.96723e-06
1.01747e-07
5.96936e-06
9.89909e-08
5.96974e-06
9.27949e-08
8.99801e-08
5.97187e-06
6.28208e-06
2.25943e-07
6.28524e-06
-5.82385e-08
6.2777e-06
-2.86544e-07
6.24157e-06
-2.89273e-07
6.23342e-06
-1.93828e-07
6.24627e-06
8.19755e-08
6.25436e-06
1.45483e-07
6.2624e-06
5.86832e-08
6.26008e-06
9.54104e-09
6.25062e-06
-3.33157e-08
6.24802e-06
-1.9889e-08
6.24629e-06
3.23201e-08
6.24367e-06
5.90139e-08
6.24751e-06
8.31297e-08
6.25161e-06
9.9094e-08
6.2521e-06
1.00659e-07
6.25336e-06
1.00486e-07
6.25557e-06
9.67871e-08
6.25651e-06
9.18543e-08
8.80885e-08
6.2584e-06
6.58266e-06
2.18757e-07
6.58368e-06
-5.92642e-08
6.5778e-06
-2.80664e-07
6.54259e-06
-2.54064e-07
6.53273e-06
-1.83964e-07
6.54704e-06
6.76644e-08
6.55378e-06
1.38744e-07
6.56062e-06
5.18428e-08
6.56016e-06
9.99961e-09
6.55027e-06
-2.34271e-08
6.54694e-06
-1.65584e-08
6.54656e-06
3.27034e-08
6.54404e-06
6.15307e-08
6.54652e-06
8.06513e-08
6.55099e-06
9.46188e-08
6.55243e-06
9.92177e-08
6.55347e-06
9.94542e-08
6.55556e-06
9.46946e-08
6.55694e-06
9.047e-08
8.63582e-08
6.55867e-06
6.89766e-06
2.10884e-07
6.89642e-06
-5.80168e-08
6.89207e-06
-2.7632e-07
6.85834e-06
-2.20326e-07
6.84642e-06
-1.72045e-07
6.86201e-06
5.20715e-08
6.86798e-06
1.32768e-07
6.87298e-06
4.68489e-08
6.87436e-06
8.61442e-09
6.86475e-06
-1.38155e-08
6.86013e-06
-1.19344e-08
6.86084e-06
3.19946e-08
6.85908e-06
6.32832e-08
6.86028e-06
7.94577e-08
6.86453e-06
9.03704e-08
6.86697e-06
9.67765e-08
6.86817e-06
9.82506e-08
6.87004e-06
9.28217e-08
6.87171e-06
8.88085e-08
8.47419e-08
6.87332e-06
7.22778e-06
2.02241e-07
7.22419e-06
-5.44225e-08
7.22117e-06
-2.73305e-07
7.18949e-06
-1.88651e-07
7.17527e-06
-1.57819e-07
7.19176e-06
3.55813e-08
7.19768e-06
1.26849e-07
7.20034e-06
4.41851e-08
7.20321e-06
5.74796e-09
7.19471e-06
-5.31759e-09
7.18852e-06
-5.74048e-09
7.18977e-06
3.07452e-08
7.18927e-06
6.37787e-08
7.18963e-06
7.91004e-08
7.19306e-06
8.69379e-08
7.19631e-06
9.35264e-08
7.19804e-06
9.65178e-08
7.19971e-06
9.11578e-08
7.20155e-06
8.69618e-08
8.32648e-08
7.20303e-06
7.5737e-06
1.92764e-07
7.56777e-06
-4.84888e-08
7.56578e-06
-2.71317e-07
7.53675e-06
-1.5962e-07
7.5201e-06
-1.4117e-07
7.53695e-06
1.87292e-08
7.54351e-06
1.20296e-07
7.54365e-06
4.40444e-08
7.54732e-06
2.07371e-09
7.54071e-06
1.2945e-09
7.53313e-06
1.84102e-09
7.53407e-06
2.98073e-08
7.53509e-06
6.27545e-08
7.53525e-06
7.89423e-08
7.5376e-06
8.45913e-08
7.54119e-06
8.99266e-08
7.54361e-06
9.41053e-08
7.54528e-06
8.94821e-08
7.54726e-06
8.49844e-08
8.19885e-08
7.54854e-06
7.93616e-06
1.82413e-07
7.92799e-06
-4.03175e-08
7.92663e-06
-2.69957e-07
7.9008e-06
-1.33794e-07
7.88177e-06
-1.22132e-07
7.8983e-06
2.20059e-09
7.90611e-06
1.12483e-07
7.90385e-06
4.63025e-08
7.90746e-06
-1.5314e-09
7.90328e-06
5.47021e-09
7.89488e-06
1.0237e-08
7.89468e-06
3.00081e-08
7.8971e-06
6.03414e-08
7.89774e-06
7.82959e-08
7.89911e-06
8.32199e-08
7.90244e-06
8.66009e-08
7.9055e-06
9.10435e-08
7.90747e-06
8.75156e-08
7.90956e-06
8.28919e-08
8.07727e-08
7.91078e-06
8.31591e-06
1.71186e-07
8.30571e-06
-3.0116e-08
8.3045e-06
-2.68752e-07
8.28234e-06
-1.11629e-07
8.26116e-06
-1.00954e-07
8.27655e-06
-1.3195e-08
8.28612e-06
1.02914e-07
8.28189e-06
5.05325e-08
8.28451e-06
-4.15336e-09
8.28293e-06
7.05211e-09
8.27458e-06
1.85857e-08
8.27272e-06
3.18754e-08
8.27595e-06
5.71115e-08
8.2777e-06
7.65418e-08
8.27848e-06
8.24452e-08
8.28103e-06
8.40434e-08
8.28451e-06
8.75669e-08
8.28688e-06
8.51426e-08
8.28919e-06
8.05837e-08
7.93205e-08
8.29064e-06
8.71373e-06
1.59121e-07
8.70181e-06
-1.81986e-08
8.70021e-06
-2.67149e-07
8.68206e-06
-9.34858e-08
8.65919e-06
-7.80823e-08
8.67258e-06
-2.65871e-08
8.68422e-06
9.12778e-08
8.67866e-06
5.6091e-08
8.67953e-06
-5.01798e-09
8.68029e-06
6.2852e-09
8.67294e-06
2.5938e-08
8.6693e-06
3.5513e-08
8.67251e-06
5.39e-08
8.67566e-06
7.34002e-08
8.67641e-06
8.16865e-08
8.67807e-06
8.23868e-08
8.68149e-06
8.41432e-08
8.68428e-06
8.23601e-08
8.68689e-06
7.79755e-08
7.7377e-08
8.68883e-06
9.13044e-06
1.46305e-07
9.11722e-06
-4.97855e-09
9.11462e-06
-2.64553e-07
9.10071e-06
-7.95767e-08
9.07677e-06
-5.41405e-08
9.08735e-06
-3.7164e-08
9.10109e-06
7.75303e-08
9.09506e-06
6.21225e-08
9.09356e-06
-3.51649e-09
9.09614e-06
3.70289e-09
9.09058e-06
3.1504e-08
9.08549e-06
4.05947e-08
9.08786e-06
5.15349e-08
9.09222e-06
6.90398e-08
9.09366e-06
8.02442e-08
9.09458e-06
8.14716e-08
9.09741e-06
8.13102e-08
9.10054e-06
7.92288e-08
9.10338e-06
7.51374e-08
7.48003e-08
9.10596e-06
9.56689e-06
1.32875e-07
9.55287e-06
9.04178e-09
9.54869e-06
-2.60369e-07
9.53902e-06
-6.99145e-08
9.51484e-06
-2.99607e-08
9.52191e-06
-4.4227e-08
9.53746e-06
6.19724e-08
9.53196e-06
6.7625e-08
9.52785e-06
5.91094e-10
9.53128e-06
2.76425e-10
9.52815e-06
3.46393e-08
9.52228e-06
4.64565e-08
9.52315e-06
5.0665e-08
9.52819e-06
6.40042e-08
9.53086e-06
7.75725e-08
9.53146e-06
8.0873e-08
9.53342e-06
7.93506e-08
9.53659e-06
7.60556e-08
9.53962e-06
7.21134e-08
7.17255e-08
9.54269e-06
1.0024e-05
1.19027e-07
1.00097e-05
2.32894e-08
1.00034e-05
-2.54045e-07
9.99781e-06
-6.43094e-08
9.97433e-06
-6.48532e-09
9.97741e-06
-4.73036e-08
9.99421e-06
4.51736e-08
9.99022e-06
7.16106e-08
9.9835e-06
7.3098e-09
9.98677e-06
-2.99329e-09
9.98631e-06
3.51009e-08
9.98059e-06
5.21809e-08
9.97966e-06
5.15935e-08
9.98461e-06
5.90555e-08
9.98863e-06
7.35473e-08
9.98956e-06
7.9949e-08
9.99069e-06
7.82114e-08
9.99339e-06
7.33643e-08
9.99665e-06
6.88448e-08
6.84825e-08
9.9999e-06
1.05027e-05
1.05004e-07
1.04888e-05
3.71423e-08
1.04799e-05
-2.45094e-07
1.04779e-05
-6.23902e-08
1.04562e-05
1.52685e-08
1.04551e-05
-4.61844e-08
1.04723e-05
2.79833e-08
1.04705e-05
7.33238e-08
1.04617e-05
1.61202e-08
1.04638e-05
-5.0866e-09
1.04658e-05
3.30958e-08
1.04612e-05
5.68167e-08
1.04586e-05
5.41916e-08
1.04627e-05
5.49965e-08
1.04678e-05
6.84437e-08
1.04696e-05
7.80674e-08
1.04703e-05
7.75308e-08
1.04721e-05
7.15705e-08
1.04755e-05
6.54982e-08
6.51477e-08
1.04788e-05
1.10039e-05
9.10735e-08
1.09911e-05
5.00066e-08
1.09792e-05
-2.33186e-07
1.09804e-05
-6.36332e-08
1.09613e-05
3.43703e-08
1.09561e-05
-4.09855e-08
1.09727e-05
1.14369e-08
1.09738e-05
7.22155e-08
1.09636e-05
2.62607e-08
1.09637e-05
-5.14896e-09
1.09677e-05
2.91083e-08
1.09649e-05
5.96045e-08
1.09611e-05
5.79555e-08
1.09637e-05
5.24781e-08
1.09693e-05
6.27697e-08
1.09725e-05
7.49378e-08
1.09733e-05
7.6718e-08
1.09741e-05
7.07145e-08
1.0977e-05
6.26145e-08
6.15349e-08
1.09806e-05
1.15289e-05
7.75297e-08
1.15176e-05
6.1304e-08
1.15026e-05
-2.18218e-07
1.15063e-05
-6.72586e-08
1.14907e-05
4.99265e-08
1.14818e-05
-3.20793e-08
1.14966e-05
-3.40711e-09
1.15007e-05
6.81773e-08
1.14903e-05
3.6687e-08
1.14879e-05
-2.77008e-09
1.14929e-05
2.40953e-08
1.14925e-05
6.00241e-08
1.14883e-05
6.21218e-08
1.1489e-05
5.18119e-08
1.14945e-05
5.71947e-08
1.14988e-05
7.06643e-08
1.15004e-05
7.51516e-08
1.15007e-05
7.04103e-08
1.15025e-05
6.07913e-08
5.76581e-08
1.15064e-05
1.20787e-05
6.46621e-08
1.20694e-05
7.05435e-08
1.20515e-05
-2.00318e-07
1.20567e-05
-7.23639e-08
1.20453e-05
6.12787e-08
1.20334e-05
-2.019e-08
1.20454e-05
-1.54202e-08
1.20522e-05
6.13613e-08
1.20426e-05
4.6302e-08
1.20378e-05
2.10266e-09
1.20428e-05
1.90641e-08
1.20447e-05
5.80703e-08
1.20411e-05
6.57394e-08
1.20401e-05
5.28766e-08
1.20448e-05
5.24662e-08
1.20499e-05
6.55703e-08
1.20525e-05
7.25235e-08
1.20529e-05
6.99921e-08
1.20535e-05
6.02038e-08
5.40446e-08
1.20571e-05
1.26545e-05
5.27367e-08
1.26477e-05
7.73595e-08
1.26273e-05
-1.79887e-07
1.26328e-05
-7.79199e-08
1.2626e-05
6.80644e-08
1.26121e-05
-6.21465e-09
1.26205e-05
-2.38258e-08
1.26295e-05
5.22912e-08
1.26217e-05
5.41129e-08
1.26147e-05
9.0891e-09
1.26187e-05
1.50605e-08
1.26227e-05
5.40884e-08
1.26205e-05
6.79313e-08
1.26182e-05
5.52313e-08
1.26215e-05
4.91917e-08
1.2627e-05
6.00639e-08
1.26305e-05
6.89414e-08
1.26317e-05
6.88088e-08
1.26315e-05
6.04033e-08
5.14809e-08
1.26341e-05
1.32577e-05
4.19931e-08
1.32535e-05
8.15179e-08
1.32312e-05
-1.57551e-07
1.32362e-05
-8.28904e-08
1.32339e-05
7.03334e-08
1.3219e-05
8.66472e-09
1.32233e-05
-2.8107e-08
1.32338e-05
4.17759e-08
1.32286e-05
5.93464e-08
1.32201e-05
1.7524e-08
1.32223e-05
1.28617e-08
1.32277e-05
4.87083e-08
1.32275e-05
6.81516e-08
1.32246e-05
5.81649e-08
1.32261e-05
4.76314e-08
1.32315e-05
5.46982e-08
1.32357e-05
6.46852e-08
1.3238e-05
6.65574e-08
1.32378e-05
6.05843e-08
5.03789e-08
1.32389e-05
1.38896e-05
3.25965e-08
1.38881e-05
8.29835e-08
1.38646e-05
-1.34087e-07
1.38681e-05
-8.63662e-08
1.38699e-05
6.85317e-08
1.38554e-05
2.31544e-08
1.38555e-05
-2.8184e-08
1.38664e-05
3.08649e-08
1.38642e-05
6.15757e-08
1.38552e-05
2.65217e-08
1.38552e-05
1.28645e-08
1.38611e-05
4.27653e-08
1.3863e-05
6.63024e-08
1.38603e-05
6.08168e-08
1.38603e-05
4.76411e-08
1.38649e-05
5.01055e-08
1.38696e-05
5.99973e-08
1.38727e-05
6.34332e-08
1.38733e-05
5.9978e-08
5.03907e-08
1.38733e-05
1.45516e-05
2.46478e-08
1.45527e-05
8.18965e-08
1.4529e-05
-1.1038e-07
1.45302e-05
-8.7605e-08
1.45354e-05
6.33418e-08
1.45224e-05
3.6137e-08
1.45187e-05
-2.4471e-08
1.45289e-05
2.07066e-08
1.45296e-05
6.082e-08
1.45211e-05
3.50508e-08
1.45189e-05
1.50272e-08
1.45245e-05
3.71667e-08
1.45282e-05
6.26861e-08
1.45266e-05
6.23993e-08
1.45254e-05
4.87812e-08
1.45288e-05
4.67443e-08
1.45336e-05
5.51505e-08
1.45373e-05
5.98139e-08
1.4539e-05
5.82294e-08
5.07152e-08
1.45387e-05
1.52454e-05
1.81709e-08
1.52487e-05
7.85552e-08
1.52256e-05
-8.72882e-08
1.52242e-05
-8.6167e-08
1.52318e-05
5.56647e-08
1.52213e-05
4.6704e-08
1.52145e-05
-1.77063e-08
1.52229e-05
1.22962e-08
1.52263e-05
5.74932e-08
1.52191e-05
4.2177e-08
1.52152e-05
1.89635e-08
1.52197e-05
3.26837e-08
1.52245e-05
5.78308e-08
1.52245e-05
6.24335e-08
1.52229e-05
5.04093e-08
1.52249e-05
4.47436e-08
1.52295e-05
5.05539e-08
1.52333e-05
5.59503e-08
1.5236e-05
5.55506e-08
5.05166e-08
1.52362e-05
1.59724e-05
1.31229e-08
1.59775e-05
7.33893e-08
1.59559e-05
-6.56192e-08
1.59516e-05
-8.19215e-08
1.59607e-05
4.65459e-08
1.59532e-05
5.42369e-08
1.59444e-05
-8.85186e-09
1.59503e-05
6.34964e-09
1.59555e-05
5.2263e-08
1.59504e-05
4.72902e-08
1.59454e-05
2.39604e-08
1.59483e-05
2.981e-08
1.59537e-05
5.24067e-08
1.59553e-05
6.08543e-08
1.59539e-05
5.18214e-08
1.59547e-05
4.39105e-08
1.59587e-05
4.66296e-08
1.59626e-05
5.19673e-08
1.59658e-05
5.24338e-08
4.9313e-08
1.5967e-05
1.67343e-05
9.38908e-09
1.67408e-05
6.6931e-08
1.67212e-05
-4.60511e-08
1.67143e-05
-7.50438e-08
1.67239e-05
3.70281e-08
1.67196e-05
5.84999e-08
1.67097e-05
1.01876e-09
1.67129e-05
3.1791e-09
1.67192e-05
4.6009e-08
1.67163e-05
5.01015e-08
1.67111e-05
2.92269e-08
1.67123e-05
2.86352e-08
1.67176e-05
4.70993e-08
1.67205e-05
5.79292e-08
1.67199e-05
5.24389e-08
1.67199e-05
4.38532e-08
1.67229e-05
4.3618e-08
1.67269e-05
4.80373e-08
1.67301e-05
4.92196e-08
4.71971e-08
1.67322e-05
1.75329e-05
6.81166e-09
1.75401e-05
5.97268e-08
1.75231e-05
-2.90575e-08
1.75141e-05
-6.59882e-08
1.75231e-05
2.80468e-08
1.75219e-05
5.96793e-08
1.75121e-05
1.07665e-08
1.75126e-05
2.75912e-09
1.7519e-05
3.96229e-08
1.75184e-05
5.06759e-08
1.75136e-05
3.40227e-08
1.75133e-05
2.88966e-08
1.75179e-05
4.2494e-08
1.75217e-05
5.41097e-08
1.75222e-05
5.1975e-08
1.7522e-05
4.40717e-08
1.75241e-05
4.15123e-08
1.75277e-05
4.44032e-08
1.75309e-05
4.6022e-08
4.45936e-08
1.75335e-05
1.837e-05
5.19543e-09
1.83774e-05
5.23041e-08
1.83632e-05
-1.48935e-08
1.83526e-05
-5.54061e-08
1.83603e-05
2.03435e-08
1.83618e-05
5.82134e-08
1.8353e-05
1.95377e-08
1.83511e-05
4.65177e-09
1.83569e-05
3.3867e-08
1.83582e-05
4.9377e-08
1.83544e-05
3.77759e-08
1.83532e-05
3.0137e-08
1.83568e-05
3.8934e-08
1.8361e-05
4.9893e-08
1.83625e-05
5.04545e-08
1.83625e-05
4.40867e-08
1.83639e-05
4.01207e-08
1.8367e-05
4.12645e-08
1.83702e-05
4.28841e-08
4.18728e-08
1.83729e-05
1.92473e-05
4.33374e-09
1.92544e-05
4.5114e-08
1.92431e-05
-3.59639e-09
1.92318e-05
-4.40437e-08
1.92377e-05
1.44019e-08
1.92412e-05
5.4767e-08