/*--------------------------------*- C++ -*----------------------------------*\
| =========                 |                                                 |
| \\      /  F ield         | OpenFOAM: The Open Source CFD Toolbox           |
|  \\    /   O peration     | Version:  2106                                  |
|   \\  /    A nd           | Website:  www.openfoam.com                      |
|    \\/     M anipulation  |                                                 |
\*---------------------------------------------------------------------------*/
FoamFile
{
    version     2.0;
    format      ascii;
    arch        "LSB;label=32;scalar=64";
    class       volScalarField;
    location    "0.025";
    object      p;
}
// * * * * * * * * * * * * * * * * * * * * * * * * * * * * * * * * * * * * * //

dimensions      [0 2 -2 0 0 0 0];

internalField   nonuniform List<scalar> 
9600
(
-1.44016e-12
1.39524e-05
3.67349e-05
7.02568e-05
0.000101605
0.000170069
0.00014405
0.000381363
-7.0823e-05
0.000871726
-0.0010059
0.0014424
-0.00051304
0.00253771
0.00411499
0.00230928
0.00398353
0.00669361
0.00784636
0.012081
-6.51713e-09
1.39409e-05
3.6721e-05
7.0237e-05
0.000101591
0.000170004
0.000144212
0.000380666
-6.86464e-05
0.000866272
-0.000993346
0.00142903
-0.000492805
0.00252987
0.00409764
0.00230501
0.00402803
0.0066531
0.00788161
0.0117718
-1.97231e-08
1.39238e-05
3.67032e-05
7.02117e-05
0.000101575
0.000169925
0.000144395
0.000379906
-6.61544e-05
0.000860949
-0.000975948
0.00142202
-0.000455749
0.00250874
0.00407128
0.00230849
0.00407387
0.00661481
0.00787924
0.0113244
-3.692e-08
1.39038e-05
3.66826e-05
7.01825e-05
0.000101557
0.000169834
0.000144604
0.0003791
-6.33711e-05
0.000856537
-0.000953595
0.00142763
-0.000405072
0.00248386
0.00404046
0.0023151
0.00413718
0.00658007
0.00780158
0.0109243
-5.56067e-08
1.38803e-05
3.66585e-05
7.01483e-05
0.000101539
0.000169728
0.000144851
0.0003782
-6.01357e-05
0.000852365
-0.000926256
0.00143894
-0.000345174
0.00245589
0.00400881
0.00232357
0.00421086
0.00653905
0.00773293
0.010567
-7.62088e-08
1.38528e-05
3.66302e-05
7.01082e-05
0.000101518
0.000169605
0.000145137
0.000377206
-5.64756e-05
0.000848161
-0.000895497
0.00145109
-0.000280591
0.00242404
0.00397902
0.00233131
0.00428243
0.00649128
0.00764365
0.0102388
-9.9186e-08
1.3821e-05
3.65973e-05
7.00615e-05
0.000101494
0.000169462
0.000145464
0.000376108
-5.23866e-05
0.000843722
-0.000862302
0.00146217
-0.000213571
0.00238911
0.00395171
0.00233683
0.00434871
0.00643855
0.00753311
0.00992976
-1.25039e-07
1.37843e-05
3.65591e-05
7.00076e-05
0.000101468
0.0001693
0.000145837
0.000374896
-4.78461e-05
0.000838916
-0.000826984
0.00147136
-0.000144618
0.00235165
0.00392682
0.00233982
0.00440878
0.00638326
0.00740032
0.0096346
-1.54314e-07
1.37422e-05
3.65151e-05
6.99456e-05
0.000101438
0.000169115
0.000146259
0.000373564
-4.2827e-05
0.00083368
-0.000789604
0.00147829
-7.37747e-05
0.00231173
0.00390411
0.00234054
0.00446097
0.00632694
0.0072451
0.00935028
-1.87613e-07
1.36941e-05
3.64646e-05
6.98747e-05
0.000101405
0.000168906
0.000146732
0.000372102
-3.7298e-05
0.000827967
-0.000750135
0.00148272
-1.05502e-06
0.00226933
0.00388321
0.00233972
0.00450331
0.00627068
0.00706847
0.0090728
-2.2559e-07
1.36393e-05
3.64068e-05
6.97938e-05
0.000101367
0.00016867
0.000147262
0.000370503
-3.12277e-05
0.000821736
-0.000708539
0.00148441
7.35033e-05
0.00222444
0.00386365
0.00233833
0.0045337
0.00621528
0.00687202
0.00879828
-2.68964e-07
1.35772e-05
3.63409e-05
6.9702e-05
0.000101325
0.000168406
0.000147852
0.000368761
-2.45853e-05
0.00081495
-0.000664794
0.00148316
0.000149802
0.0021771
0.00384488
0.00233737
0.00455006
0.00616188
0.00665752
0.00852949
-3.18521e-07
1.35069e-05
3.6266e-05
6.9598e-05
0.000101276
0.000168111
0.000148504
0.000366867
-1.73413e-05
0.000807572
-0.000618894
0.00147878
0.000227686
0.0021275
0.0038262
0.00233783
0.00455059
0.00611081
0.00642805
0.00824824
-3.75124e-07
1.34276e-05
3.61811e-05
6.94806e-05
0.000101221
0.000167783
0.000149224
0.000364816
-9.4687e-06
0.00079957
-0.000570859
0.00147114
0.000306944
0.00207593
0.00380674
0.00234077
0.00453383
0.00606119
0.00618882
0.00795525
-4.39719e-07
1.33382e-05
3.60851e-05
6.93484e-05
0.000101158
0.00016742
0.000150013
0.000362601
-9.43808e-07
0.000790915
-0.000520735
0.00146015
0.000387283
0.00202284
0.00378539
0.00234717
0.00449876
0.00601144
0.00594556
0.00764772
-5.13341e-07
1.32377e-05
3.59767e-05
6.91997e-05
0.000101086
0.000167017
0.000150875
0.000360218
8.2529e-06
0.000781586
-0.000468602
0.00144577
0.000468327
0.0019688
0.00376093
0.00235785
0.0044449
0.00595941
0.00570409
0.00732375
-5.97128e-07
1.31249e-05
3.58547e-05
6.9033e-05
0.000101003
0.000166574
0.000151813
0.000357662
1.81355e-05
0.000771571
-0.000414572
0.00142804
0.000549623
0.00191451
0.00373212
0.00237335
0.00437234
0.00590264
0.00547007
0.00698253
-6.92326e-07
1.29986e-05
3.57174e-05
6.88464e-05
0.000100909
0.000166087
0.000152828
0.000354933
2.87113e-05
0.000760867
-0.000358799
0.00140706
0.000630608
0.00186067
0.00369776
0.00239399
0.00428187
0.00583795
0.00524854
0.00662518
-8.00305e-07
1.28572e-05
3.55633e-05
6.86379e-05
0.000100802
0.000165553
0.000153922
0.000352028
3.99801e-05
0.000749484
-0.000301476
0.00138303
0.000710629
0.00180577
0.00365662
0.00241959
0.00417492
0.00576187
0.00504351
0.00625479
-9.22566e-07
1.26993e-05
3.53905e-05
6.84053e-05
0.000100679
0.00016497
0.000155095
0.00034895
5.19319e-05
0.000737445
-0.000242845
0.00135623
0.000789016
0.00175568
0.00360757
0.00244929
0.00405247
0.00567132
0.00485784
0.00587621
-1.06076e-06
1.2523e-05
3.51971e-05
6.81461e-05
0.000100538
0.000164333
0.000156346
0.000345702
6.45467e-05
0.000724792
-0.000183189
0.001327
0.000865017
0.00170875
0.00354964
0.00248213
0.00389367
0.00556328
0.00469289
0.00549578
-1.21668e-06
1.23265e-05
3.49808e-05
6.78577e-05
0.000100376
0.000163642
0.000157674
0.000342291
7.77925e-05
0.000711579
-0.000122839
0.00129577
0.000937779
0.00166572
0.00348225
0.00251759
0.00375134
0.00543525
0.0045478
0.00512057
-1.39233e-06
1.21077e-05
3.47393e-05
6.75373e-05
0.000100191
0.000162891
0.000159075
0.000338724
9.16245e-05
0.000697881
-6.21727e-05
0.00126303
0.00100642
0.00162721
0.00340516
0.00255378
0.00361045
0.00528597
0.00441982
0.00475829
-1.58988e-06
1.18642e-05
3.44699e-05
6.71817e-05
9.99795e-05
0.000162079
0.000160543
0.000335015
0.000105984
0.000683789
-1.60226e-06
0.00122931
0.00107008
0.00159367
0.00331845
0.00258823
0.00347038
0.00511545
0.00430495
0.00441627
-1.81171e-06
1.15935e-05
3.41695e-05
6.67874e-05
9.9737e-05
0.000161203
0.000162072
0.000331176
0.000120799
0.000669409
5.84214e-05
0.00119518
0.0011279
0.00156535
0.0032227
0.00261897
0.00333289
0.00492408
0.00419819
0.00410047
-2.06045e-06
1.12928e-05
3.38351e-05
6.63507e-05
9.94594e-05
0.000160258
0.00016365
0.000327224
0.00013598
0.000654863
0.000117417
0.00116119
0.00117915
0.00154222
0.00311887
0.00264353
0.00320043
0.00471411
0.00409412
0.00381495
-2.33895e-06
1.09591e-05
3.34629e-05
6.58675e-05
9.91417e-05
0.000159243
0.000165268
0.000323179
0.000151427
0.000640279
0.000174893
0.00112789
0.00122318
0.00152398
0.00300825
0.00265932
0.00307504
0.00448913
0.00398734
0.00356165
-2.65037e-06
1.05888e-05
3.30492e-05
6.53333e-05
9.87783e-05
0.000158153
0.000166908
0.000319061
0.000167022
0.000625795
0.000230345
0.00109576
0.00125951
0.0015101
0.00289237
0.00266443
0.00295721
0.00425308
0.00387307
0.00334023
-2.99816e-06
1.01785e-05
3.25896e-05
6.47433e-05
9.83629e-05
0.000156986
0.000168554
0.000314893
0.000182637
0.000611549
0.000283273
0.0010652
0.00128779
0.00149981
0.00277292
0.00265684
0.00284786
0.00401069
0.00374778
0.00314813
-3.38609e-06
9.72386e-06
3.20793e-05
6.40919e-05
9.78884e-05
0.000155736
0.000170186
0.000310696
0.000198132
0.00059767
0.000333207
0.00103653
0.00130777
0.00149207
0.00265164
0.00263533
0.00274632
0.00376701
0.0036094
0.00298094
-3.81829e-06
9.22053e-06
3.15132e-05
6.33734e-05
9.73467e-05
0.000154401
0.000171778
0.000306492
0.000213357
0.00058428
0.000379693
0.00100989
0.00131915
0.00148571
0.00253025
0.00259936
0.00265122
0.00352657
0.00345735
0.00283308
-4.29929e-06
8.66359e-06
3.08855e-05
6.25813e-05
9.67289e-05
0.000152975
0.000173303
0.0003023
0.000228154
0.000571476
0.000422356
0.000985301
0.00132294
0.00147952
0.00241029
0.00254907
0.00256082
0.00329321
0.00329246
0.00269855
-4.83403e-06
8.04766e-06
3.01899e-05
6.17085e-05
9.60251e-05
0.000151452
0.000174732
0.000298135
0.000242365
0.000559319
0.000460865
0.000962793
0.00131916
0.00147214
0.002293
0.00248517
0.00247313
0.00306985
0.00311678
0.00257163
-5.42794e-06
7.36686e-06
2.94195e-05
6.07473e-05
9.52243e-05
0.000149825
0.000176031
0.000294007
0.00025583
0.000547846
0.000494907
0.000942331
0.00130829
0.0014622
0.00217928
0.00240886
0.00238614
0.00285847
0.00293325
0.00244749
-6.08692e-06
6.61474e-06
2.85667e-05
5.96892e-05
9.43141e-05
0.000148086
0.000177162
0.00028992
0.000268386
0.000537061
0.000524306
0.000923569
0.00129095
0.0014488
0.00206971
0.00232177
0.00229805
0.00266002
0.00274527
0.00232256
-6.81743e-06
5.78425e-06
2.76233e-05
5.85247e-05
9.32809e-05
0.000146224
0.000178086
0.000285868
0.00027988
0.000526914
0.000548959
0.00090603
0.00126782
0.00143083
0.00196456
0.00222578
0.00220741
0.00247456
0.00255627
0.00219464
-7.62652e-06
4.86771e-06
2.65801e-05
5.72436e-05
9.21098e-05
0.000144228
0.00017876
0.000281836
0.000290172
0.000517328
0.000568714
0.000889231
0.00123966
0.00140781
0.00186374
0.00212289
0.00211326
0.00230145
0.00236938
0.0020629
-8.52188e-06
3.85671e-06
2.54271e-05
5.58344e-05
9.07843e-05
0.000142083
0.000179138
0.000277795
0.000299128
0.000508221
0.000583722
0.000872608
0.00120717
0.00137933
0.00176693
0.00201506
0.00201508
0.00213953
0.00218722
0.00192765
-9.51188e-06
2.74209e-06
2.41536e-05
5.42846e-05
8.92862e-05
0.00013977
0.000179174
0.000273706
0.000306625
0.000499427
0.000594024
0.000855636
0.00117097
0.00134521
0.00167363
0.00190411
0.00191284
0.00198735
0.00201171
0.00178997
-1.06056e-05
1.51386e-06
2.27475e-05
5.25803e-05
8.75956e-05
0.000137268
0.000178816
0.000269516
0.000312555
0.000490722
0.000599763
0.000837827
0.00113164
0.00130552
0.00158323
0.00179164
0.00180693
0.00184341
0.00184407
0.00165142
-1.1813e-05
1.61165e-07
2.11961e-05
5.07064e-05
8.56909e-05
0.000134553
0.000178012
0.000265157
0.000316823
0.000481881
0.000601106
0.000818704
0.00108966
0.0012605
0.00149511
0.00167894
0.00169802
0.0017063
0.00168489
0.0015137
-1.31449e-05
-1.3278e-06
1.94853e-05
4.86461e-05
8.35483e-05
0.000131596
0.000176707
0.000260552
0.000319348
0.000472662
0.000598254
0.000797846
0.00104542
0.00121056
0.00140867
0.00156704
0.00158699
0.00157484
0.00153424
0.00137838
-1.46128e-05
-2.96583e-06
1.75997e-05
4.63809e-05
8.1142e-05
0.000128363
0.000174846
0.000255608
0.000320063
0.000462813
0.000591424
0.00077491
0.000999217
0.00115623
0.00132339
0.00145667
0.00147479
0.00144809
0.00139182
0.00124674
-1.62293e-05
-4.7668e-06
1.55229e-05
4.38907e-05
7.84441e-05
0.000124817
0.00017237
0.000250223
0.000318912
0.000452085
0.000580843
0.000749633
0.000951279
0.0010981
0.00123887
0.00134834
0.00136239
0.00132542
0.00125709
0.00111972
-1.80081e-05
-6.74568e-06
1.3237e-05
4.11534e-05
7.54243e-05
0.000120915
0.000169219
0.000244287
0.000315854
0.000440239
0.000566737
0.000721845
0.000901774
0.00103676
0.00115484
0.00124233
0.00125069
0.00120644
0.00112944
0.000997907
-1.99639e-05
-8.91864e-06
1.07226e-05
3.8145e-05
7.205e-05
0.000116611
0.000165333
0.000237686
0.000310855
0.000427053
0.000549326
0.000691456
0.000850825
0.000972835
0.00107117
0.00113882
0.00114044
0.00109096
0.00100823
0.000881543
-2.21124e-05
-1.13031e-05
7.95923e-06
3.48395e-05
6.82865e-05
0.000111855
0.00016065
0.0002303
0.000303893
0.000412334
0.000528821
0.000658457
0.000798534
0.000906882
0.000987811
0.00103786
0.00103226
0.000978936
0.000892861
0.00077064
-2.44704e-05
-1.39176e-05
4.92451e-06
3.12088e-05
6.40965e-05
0.000106591
0.000155108
0.000222013
0.000294952
0.00039592
0.000505422
0.000622908
0.000744991
0.000839422
0.000904847
0.000939464
0.000926642
0.000870399
0.000782845
0.000665036
-2.70561e-05
-1.67821e-05
1.59479e-06
2.72228e-05
5.94409e-05
0.000100764
0.000148645
0.00021271
0.000284029
0.000377685
0.000479318
0.000584923
0.000690295
0.000770917
0.000822405
0.000843616
0.000823907
0.00076542
0.000677769
0.00056448
-2.98885e-05
-1.99178e-05
-2.05513e-06
2.28496e-05
5.42785e-05
9.43122e-05
0.0001412
0.000202286
0.000271125
0.00035754
0.000450692
0.000544664
0.000634555
0.00070177
0.000740661
0.000750294
0.000724277
0.000664066
0.000577307
0.000468685
-3.29881e-05
-2.33472e-05
-6.05188e-06
1.80552e-05
4.85663e-05
8.71762e-05
0.000132715
0.000190642
0.000256253
0.000335437
0.00041972
0.000502324
0.000577899
0.000632329
0.000659812
0.000659485
0.000627878
0.000566387
0.000481197
0.000377357
-3.63761e-05
-2.70939e-05
-1.04234e-05
1.28044e-05
4.22605e-05
7.92948e-05
0.000123135
0.000177695
0.000239434
0.000311362
0.000386576
0.000458119
0.000520474
0.000562893
0.000580056
0.000571188
0.000534769
0.000472401
0.000389226
0.000290208
-4.0075e-05
-3.11828e-05
-1.51989e-05
7.06043e-06
3.53163e-05
7.06084e-05
0.000112409
0.000163376
0.000220701
0.000285341
0.000351437
0.000412278
0.000462445
0.000493721
0.000501582
0.000485411
0.000444957
0.000382089
0.00030121
0.000206968
-4.41081e-05
-3.56394e-05
-2.04083e-05
7.8615e-07
2.76894e-05
6.10604e-05
0.000100493
0.000147632
0.0002001
0.000257429
0.000314483
0.000365038
0.000403989
0.000425039
0.000424564
0.000402172
0.000358418
0.000295399
0.000216977
0.000127392
-4.84992e-05
-4.04902e-05
-2.60823e-05
-6.05583e-06
1.93363e-05
5.05982e-05
8.73509e-05
0.000130433
0.000177689
0.00022771
0.000275898
0.000316639
0.000345293
0.000357047
0.000349152
0.000321486
0.000275102
0.000212242
0.000136361
5.12606e-05
-5.32727e-05
-4.57618e-05
-3.22517e-05
-1.35022e-05
1.02162e-05
3.91756e-05
7.29577e-05
0.000111763
0.000153541
0.000196296
0.000235872
0.000267316
0.000286549
0.000289921
0.000275473
0.000243364
0.000194943
0.000132512
5.91974e-05
-2.16221e-05
-5.8453e-05
-5.14808e-05
-3.89465e-05
-2.1588e-05
2.91605e-07
2.67544e-05
5.72988e-05
9.16317e-05
0.000127743
0.000163319
0.000194601
0.000217303
0.000227949
0.000223819
0.000203631
0.000167809
0.000117867
5.60929e-05
-1.46697e-05
-9.14361e-05
-6.4064e-05
-5.76732e-05
-4.61957e-05
-3.03457e-05
-1.04699e-05
1.33056e-05
4.0373e-05
7.00671e-05
0.000100399
0.000128929
0.000152284
0.000166825
0.00016968
0.00015888
0.000133708
9.48134e-05
4.37953e-05
-1.71341e-05
-8.53906e-05
-0.000158346
-7.01289e-05
-6.43635e-05
-5.40264e-05
-3.9804e-05
-2.2094e-05
-1.18837e-06
2.2194e-05
4.71184e-05
7.16257e-05
9.32913e-05
0.000109127
0.0001161
0.00011192
9.52309e-05
6.5766e-05
2.43635e-05
-2.73543e-05
-8.72896e-05
-0.000153108
-0.0002225
-7.66693e-05
-7.15744e-05
-6.24621e-05
-4.99865e-05
-3.45983e-05
-1.67322e-05
2.7911e-06
2.28554e-05
4.15563e-05
5.65834e-05
6.53331e-05
6.53363e-05
5.48373e-05
3.29824e-05
-1.42732e-07
-4.35601e-05
-9.56633e-05
-0.000154494
-0.000217957
-0.000284034
-8.37041e-05
-7.93256e-05
-7.15223e-05
-6.09101e-05
-4.79906e-05
-3.33163e-05
-1.77896e-05
-2.63284e-06
1.03363e-05
1.89909e-05
2.11094e-05
1.47343e-05
-1.40854e-06
-2.77652e-05
-6.39792e-05
-0.000108981
-0.000161212
-0.000218863
-0.000280069
-0.000343076
-9.12492e-05
-8.76325e-05
-8.12207e-05
-7.25838e-05
-6.22674e-05
-5.09151e-05
-3.94846e-05
-2.92387e-05
-2.18757e-05
-1.92936e-05
-2.33406e-05
-3.55142e-05
-5.66685e-05
-8.69208e-05
-0.000125714
-0.00017193
-0.000224079
-0.000280508
-0.000339568
-0.000399742
-9.93158e-05
-9.65051e-05
-9.15637e-05
-8.50065e-05
-7.74118e-05
-6.94867e-05
-6.22125e-05
-5.68373e-05
-5.49097e-05
-5.80724e-05
-6.78142e-05
-8.52253e-05
-0.000110802
-0.000144402
-0.000185324
-0.000232437
-0.000284339
-0.000339532
-0.000396565
-0.000454135
-0.000107909
-0.000105946
-0.000102549
-9.81655e-05
-9.33926e-05
-8.89713e-05
-8.58738e-05
-8.52873e-05
-8.85855e-05
-9.71432e-05
-0.000112111
-0.000134223
-0.000163679
-0.000200134
-0.000242793
-0.000290538
-0.000342064
-0.000396027
-0.000451158
-0.000506337
-0.000117028
-0.000115951
-0.000114163
-0.000112035
-0.000110162
-0.00010929
-0.000110351
-0.000114432
-0.000122713
-0.000136301
-0.000156034
-0.00018234
-0.000215175
-0.000254047
-0.000298104
-0.00034626
-0.000397316
-0.000450072
-0.000503423
-0.000556412
-0.000126659
-0.000126503
-0.000126382
-0.000126574
-0.000127655
-0.000130346
-0.000135508
-0.000144099
-0.000157095
-0.000175339
-0.00019939
-0.000229415
-0.000265177
-0.000306077
-0.00035124
-0.000399628
-0.000450145
-0.000501729
-0.000553421
-0.000604407
-0.000136782
-0.000137573
-0.000139163
-0.000141724
-0.000145787
-0.000152022
-0.000161191
-0.000174103
-0.000191525
-0.00021405
-0.000241987
-0.000275291
-0.000313572
-0.000356159
-0.00040218
-0.000450654
-0.000500587
-0.000551043
-0.000601195
-0.000650356
-0.000147359
-0.000149118
-0.000152452
-0.000157408
-0.000164452
-0.000174179
-0.000187229
-0.000204247
-0.000225791
-0.000252225
-0.00028364
-0.000319815
-0.00036025
-0.000404228
-0.000450896
-0.00049934
-0.000548662
-0.000598042
-0.000646773
-0.000694276
-0.000158338
-0.000161079
-0.000166173
-0.000173529
-0.000183526
-0.00019666
-0.000213434
-0.00023432
-0.000259675
-0.000289655
-0.000324161
-0.000362836
-0.000405098
-0.000450211
-0.000497352
-0.000545674
-0.000594376
-0.000642741
-0.000690167
-0.000736172
-0.000169648
-0.000173375
-0.000180228
-0.000189967
-0.000202859
-0.000219285
-0.000239601
-0.000264101
-0.000292951
-0.000326123
-0.000363361
-0.000404197
-0.000448
-0.000494028
-0.000541496
-0.00058963
-0.000637716
-0.000685133
-0.000731369
-0.000776026
-0.000181198
-0.000185906
-0.0001945
-0.000206577
-0.00022228
-0.000241856
-0.000265506
-0.000293353
-0.000325385
-0.00036141
-0.000401044
-0.000443739
-0.000488829
-0.000535585
-0.000583265
-0.000631166
-0.000678654
-0.000725193
-0.000770352
-0.000813799
-0.000192872
-0.000198545
-0.000208844
-0.000223193
-0.000241593
-0.00026415
-0.000290909
-0.000321828
-0.000356731
-0.000395287
-0.000437009
-0.00048129
-0.000527449
-0.000574776
-0.000622578
-0.000670218
-0.000717138
-0.000762873
-0.00080706
-0.000849425
-0.000204529
-0.000211141
-0.00022309
-0.000239619
-0.000260577
-0.000285922
-0.000315549
-0.000349258
-0.000386729
-0.000427511
-0.000471039
-0.000516666
-0.000563707
-0.000611477
-0.000659335
-0.000706703
-0.000753089
-0.000798093
-0.000841408
-0.000882811
-0.000215998
-0.000223512
-0.000237039
-0.000255633
-0.000278983
-0.000306904
-0.000339144
-0.000375358
-0.000415102
-0.000457827
-0.000502906
-0.000549667
-0.00059743
-0.000645542
-0.000693407
-0.000740504
-0.000786398
-0.000830744
-0.000873285
-0.000913839
-0.000227075
-0.000235446
-0.000250462
-0.000270981
-0.000296536
-0.0003268
-0.000361386
-0.000399823
-0.000441555
-0.000485958
-0.000532357
-0.000580067
-0.000628419
-0.000676792
-0.000724633
-0.00077147
-0.00081692
-0.000860684
-0.000902547
-0.000942363
-0.000237524
-0.000246699
-0.000263098
-0.000285382
-0.000312927
-0.000345284
-0.000381943
-0.000422319
-0.000465767
-0.0005116
-0.000559113
-0.000607611
-0.000656442
-0.000705014
-0.000752813
-0.000799411
-0.000844469
-0.00088773
-0.000929014
-0.000968203
-0.000247068
-0.000256989
-0.000274658
-0.000298524
-0.000327822
-0.000362
-0.000400447
-0.000442482
-0.000487384
-0.000534419
-0.000582857
-0.000632006
-0.000681225
-0.000729951
-0.000777703
-0.000824092
-0.000868815
-0.000911653
-0.000952455
-0.000991128
-0.000255386
-0.000265961
-0.000284774
-0.000310033
-0.000340834
-0.000376546
-0.000416481
-0.000459881
-0.000505974
-0.000553988
-0.00060318
-0.000652854
-0.000702387
-0.000751239
-0.000798956
-0.00084518
-0.000889636
-0.000932128
-0.000972535
-0.00101079
-0.000262286
-0.000273319
-0.000292928
-0.000319194
-0.000351113
-0.000387981
-0.000429032
-0.000473448
-0.000520413
-0.000569133
-0.000618857
-0.000668894
-0.000718634
-0.000767556
-0.000815234
-0.00086133
-0.000905587
-0.000947821
-0.000987914
-0.0010258
-0.000267647
-0.000279784
-0.00030076
-0.000328227
-0.000361275
-0.000399267
-0.0004414
-0.000486814
-0.000534663
-0.000584133
-0.000634461
-0.000684955
-0.000735016
-0.000784137
-0.00083191
-0.000878021
-0.000922242
-0.000964416
-0.00100445
-0.00104229
0.0193286
0.0102879
0.000252187
-0.0060223
-0.00864879
-0.00842349
-0.0060768
-0.00373276
-0.00283955
-0.00278587
-0.00266935
-0.00240961
-0.0022247
-0.00215153
-0.00212336
-0.00210746
-0.00210389
-0.00211387
-0.00213451
-0.00216315
-0.00219837
-0.00223922
-0.00228491
-0.0023348
-0.00238837
-0.00244525
-0.00250511
-0.00256768
-0.00263277
-0.00270021
-0.00276987
-0.00284166
-0.00291546
-0.00299125
-0.00306895
-0.00314849
-0.00322988
-0.00331311
-0.00339815
-0.00348502
-0.00357368
-0.00366411
-0.00375636
-0.00385045
-0.00394637
-0.00404416
-0.00414385
-0.00424543
-0.00434891
-0.00445434
-0.00456173
-0.00467112
-0.00478251
-0.00489596
-0.00501153
-0.00512925
-0.00524914
-0.00537125
-0.00549559
-0.00562221
-0.00575114
-0.00588243
-0.00601613
-0.00615227
-0.0062909
-0.00643206
-0.0065758
-0.00672216
-0.0068712
-0.00702295
-0.00717748
-0.00733483
-0.00749505
-0.00765819
-0.00782431
-0.00799346
-0.00816569
-0.00834106
-0.00851963
-0.00870144
-0.00888657
-0.00907505
-0.00926696
-0.00946235
-0.00966126
-0.00986376
-0.0100699
-0.0102797
-0.0104932
-0.0107104
-0.0109313
-0.0111561
-0.0113838
-0.0116166
-0.0118477
-0.0120896
-0.0123122
-0.0125491
-0.0127466
-0.0128623
0.0182235
0.010127
0.000355387
-0.00588052
-0.00856976
-0.00839226
-0.00606576
-0.00373019
-0.00284023
-0.00278717
-0.00266993
-0.00240958
-0.00222466
-0.00215154
-0.00212337
-0.00210744
-0.00210388
-0.00211386
-0.0021345
-0.00216314
-0.00219836
-0.00223921
-0.0022849
-0.00233479
-0.00238837
-0.00244525
-0.0025051
-0.00256767
-0.00263277
-0.0027002
-0.00276987
-0.00284165
-0.00291546
-0.00299125
-0.00306895
-0.00314849
-0.00322988
-0.0033131
-0.00339815
-0.00348502
-0.00357367
-0.00366411
-0.00375636
-0.00385045
-0.00394637
-0.00404416
-0.00414385
-0.00424543
-0.00434891
-0.00445434
-0.00456173
-0.00467112
-0.00478251
-0.00489596
-0.00501153
-0.00512925
-0.00524914
-0.00537125
-0.00549559
-0.00562221
-0.00575114
-0.00588243
-0.00601613
-0.00615227
-0.0062909
-0.00643206
-0.0065758
-0.00672216
-0.0068712
-0.00702295
-0.00717748
-0.00733483
-0.00749505
-0.00765819
-0.00782431
-0.00799346
-0.00816569
-0.00834106
-0.00851963
-0.00870144
-0.00888657
-0.00907505
-0.00926696
-0.00946235
-0.00966126
-0.00986376
-0.0100699
-0.0102797
-0.0104932
-0.0107104
-0.0109313
-0.0111561
-0.0113838
-0.0116166
-0.0118477
-0.0120896
-0.0123122
-0.0125491
-0.0127466
-0.0128623
0.0172583
0.00999578
0.000590405
-0.00559069
-0.00841128
-0.00831911
-0.00602603
-0.00371383
-0.00283789
-0.00278792
-0.0026699
-0.00240924
-0.0022246
-0.00215162
-0.00212339
-0.00210741
-0.00210384
-0.00211383
-0.00213447
-0.00216311
-0.00219833
-0.00223919
-0.00228488
-0.00233478
-0.00238835
-0.00244524
-0.00250509
-0.00256767
-0.00263276
-0.0027002
-0.00276986
-0.00284165
-0.00291545
-0.00299124
-0.00306894
-0.00314849
-0.00322988
-0.0033131
-0.00339815
-0.00348502
-0.00357367
-0.00366411
-0.00375636
-0.00385044
-0.00394637
-0.00404416
-0.00414385
-0.00424543
-0.00434891
-0.00445434
-0.00456173
-0.00467112
-0.00478251
-0.00489596
-0.00501153
-0.00512925
-0.00524914
-0.00537125
-0.00549559
-0.00562221
-0.00575114
-0.00588243
-0.00601613
-0.00615227
-0.0062909
-0.00643206
-0.0065758
-0.00672216
-0.0068712
-0.00702295
-0.00717748
-0.00733483
-0.00749505
-0.00765819
-0.00782431
-0.00799346
-0.00816569
-0.00834106
-0.00851963
-0.00870144
-0.00888657
-0.00907505
-0.00926696
-0.00946235
-0.00966126
-0.00986376
-0.0100699
-0.0102797
-0.0104932
-0.0107104
-0.0109313
-0.0111561
-0.0113838
-0.0116166
-0.0118477
-0.0120896
-0.0123122
-0.0125491
-0.0127466
-0.0128623
0.0163737
0.00986675
0.000886041
-0.00522303
-0.00818778
-0.00819721
-0.00595169
-0.00368051
-0.00283039
-0.00278742
-0.00266921
-0.00240855
-0.00222452
-0.00215177
-0.00212344
-0.00210736
-0.00210377
-0.00211377
-0.00213442
-0.00216306
-0.0021983
-0.00223916
-0.00228486
-0.00233475
-0.00238833
-0.00244522
-0.00250508
-0.00256765
-0.00263275
-0.00270019
-0.00276985
-0.00284164
-0.00291545
-0.00299124
-0.00306894
-0.00314848
-0.00322987
-0.0033131
-0.00339815
-0.00348501
-0.00357367
-0.00366411
-0.00375636
-0.00385044
-0.00394636
-0.00404416
-0.00414385
-0.00424543
-0.00434891
-0.00445433
-0.00456173
-0.00467111
-0.00478251
-0.00489596
-0.00501153
-0.00512925
-0.00524914
-0.00537124
-0.00549559
-0.00562221
-0.00575114
-0.00588243
-0.00601613
-0.00615227
-0.0062909
-0.00643206
-0.0065758
-0.00672216
-0.0068712
-0.00702295
-0.00717748
-0.00733483
-0.00749505
-0.00765819
-0.00782431
-0.00799346
-0.00816569
-0.00834106
-0.00851963
-0.00870144
-0.00888657
-0.00907505
-0.00926696
-0.00946235
-0.00966126
-0.00986376
-0.0100699
-0.0102797
-0.0104932
-0.0107104
-0.0109313
-0.0111561
-0.0113838
-0.0116166
-0.0118477
-0.0120897
-0.0123122
-0.0125491
-0.0127466
-0.0128623
0.0155121
0.00970555
0.00118386
-0.00483708
-0.00794426
-0.00806108
-0.00586566
-0.00363875
-0.00281867
-0.00278517
-0.00266763
-0.00240745
-0.00222433
-0.00215189
-0.00212345
-0.00210727
-0.00210367
-0.00211368
-0.00213434
-0.002163
-0.00219824
-0.00223911
-0.00228481
-0.00233472
-0.00238831
-0.0024452
-0.00250506
-0.00256763
-0.00263274
-0.00270018
-0.00276984
-0.00284163
-0.00291544
-0.00299123
-0.00306893
-0.00314848
-0.00322987
-0.0033131
-0.00339814
-0.00348501
-0.00357367
-0.0036641
-0.00375636
-0.00385044
-0.00394636
-0.00404416
-0.00414385
-0.00424543
-0.00434891
-0.00445433
-0.00456173
-0.00467111
-0.00478251
-0.00489596
-0.00501153
-0.00512925
-0.00524914
-0.00537124
-0.00549559
-0.00562221
-0.00575114
-0.00588243
-0.00601613
-0.00615227
-0.0062909
-0.00643206
-0.0065758
-0.00672216
-0.00687119
-0.00702295
-0.00717748
-0.00733483
-0.00749505
-0.00765819
-0.00782431
-0.00799346
-0.00816569
-0.00834106
-0.00851963
-0.00870144
-0.00888657
-0.00907505
-0.00926696
-0.00946235
-0.00966126
-0.00986376
-0.0100699
-0.0102797
-0.0104932
-0.0107104
-0.0109313
-0.0111561
-0.0113838
-0.0116166
-0.0118477
-0.0120897
-0.0123122
-0.0125491
-0.0127466
-0.0128623
0.0146687
0.00950079
0.00146925
-0.00444446
-0.00769148
-0.00792191
-0.00577671
-0.00359235
-0.00280339
-0.00278119
-0.00266529
-0.00240597
-0.00222391
-0.0021519
-0.00212339
-0.00210712
-0.00210352
-0.00211355
-0.00213423
-0.0021629
-0.00219816
-0.00223905
-0.00228476
-0.00233467
-0.00238827
-0.00244517
-0.00250503
-0.00256761
-0.00263272
-0.00270016
-0.00276983
-0.00284162
-0.00291543
-0.00299122
-0.00306892
-0.00314847
-0.00322986
-0.00331309
-0.00339814
-0.00348501
-0.00357366
-0.0036641
-0.00375635
-0.00385044
-0.00394636
-0.00404415
-0.00414385
-0.00424543
-0.00434891
-0.00445433
-0.00456173
-0.00467111
-0.00478251
-0.00489596
-0.00501153
-0.00512925
-0.00524914
-0.00537124
-0.00549559
-0.00562221
-0.00575114
-0.00588243
-0.00601613
-0.00615227
-0.0062909
-0.00643206
-0.0065758
-0.00672216
-0.00687119
-0.00702295
-0.00717748
-0.00733483
-0.00749505
-0.00765819
-0.00782431
-0.00799346
-0.00816569
-0.00834106
-0.00851963
-0.00870144
-0.00888657
-0.00907505
-0.00926696
-0.00946235
-0.00966126
-0.00986376
-0.0100699
-0.0102797
-0.0104932
-0.0107104
-0.0109313
-0.0111561
-0.0113838
-0.0116166
-0.0118477
-0.0120897
-0.0123122
-0.0125492
-0.0127467
-0.0128623
0.0138459
0.00925478
0.00174052
-0.00404626
-0.007429
-0.0077799
-0.00568639
-0.00354258
-0.0027851
-0.00277576
-0.00266239
-0.00240413
-0.00222322
-0.00215172
-0.00212322
-0.0021069
-0.00210331
-0.00211338
-0.00213409
-0.00216278
-0.00219807
-0.00223897
-0.00228469
-0.00233461
-0.00238822
-0.00244513
-0.00250499
-0.00256758
-0.00263269
-0.00270014
-0.00276981
-0.0028416
-0.00291542
-0.00299121
-0.00306891
-0.00314846
-0.00322986
-0.00331309
-0.00339813
-0.003485
-0.00357366
-0.0036641
-0.00375635
-0.00385044
-0.00394636
-0.00404415
-0.00414385
-0.00424543
-0.00434891
-0.00445433
-0.00456173
-0.00467111
-0.00478251
-0.00489596
-0.00501153
-0.00512925
-0.00524914
-0.00537124
-0.00549559
-0.00562221
-0.00575114
-0.00588243
-0.00601613
-0.00615227
-0.0062909
-0.00643206
-0.0065758
-0.00672216
-0.00687119
-0.00702295
-0.00717748
-0.00733483
-0.00749505
-0.00765819
-0.00782431
-0.00799346
-0.00816569
-0.00834106
-0.00851963
-0.00870144
-0.00888657
-0.00907505
-0.00926696
-0.00946235
-0.00966126
-0.00986376
-0.0100699
-0.0102797
-0.0104932
-0.0107104
-0.0109313
-0.0111561
-0.0113838
-0.0116166
-0.0118478
-0.0120897
-0.0123123
-0.0125492
-0.0127468
-0.0128624
0.0130517
0.00897131
0.00199345
-0.00364158
-0.00715305
-0.00763388
-0.00559599
-0.00349056
-0.00276408
-0.00276886
-0.00265887
-0.00240189
-0.00222222
-0.00215134
-0.00212293
-0.00210659
-0.00210303
-0.00211316
-0.00213391
-0.00216264
-0.00219794
-0.00223887
-0.00228461
-0.00233454
-0.00238817
-0.00244508
-0.00250495
-0.00256754
-0.00263267
-0.00270012
-0.00276979
-0.00284158
-0.0029154
-0.0029912
-0.0030689
-0.00314845
-0.00322985
-0.00331308
-0.00339813
-0.00348499
-0.00357366
-0.00366409
-0.00375635
-0.00385043
-0.00394636
-0.00404415
-0.00414384
-0.00424543
-0.00434891
-0.00445433
-0.00456173
-0.00467111
-0.00478251
-0.00489596
-0.00501153
-0.00512924
-0.00524914
-0.00537124
-0.00549559
-0.00562221
-0.00575114
-0.00588243
-0.00601613
-0.00615227
-0.0062909
-0.00643206
-0.0065758
-0.00672216
-0.00687119
-0.00702295
-0.00717748
-0.00733483
-0.00749505
-0.00765819
-0.00782431
-0.00799346
-0.00816569
-0.00834106
-0.00851963
-0.00870144
-0.00888657
-0.00907505
-0.00926696
-0.00946235
-0.00966126
-0.00986376
-0.0100699
-0.0102797
-0.0104932
-0.0107104
-0.0109313
-0.0111561
-0.0113838
-0.0116166
-0.0118478
-0.0120897
-0.0123123
-0.0125493
-0.0127469
-0.0128624
0.012293
0.00865198
0.00222413
-0.00322976
-0.00686262
-0.00748493
-0.00550696
-0.00343674
-0.00274002
-0.00276021
-0.00265464
-0.00239923
-0.00222088
-0.00215073
-0.00212249
-0.00210618
-0.00210268
-0.00211288
-0.00213369
-0.00216245
-0.0021978
-0.00223875
-0.00228451
-0.00233446
-0.0023881
-0.00244503
-0.00250491
-0.0025675
-0.00263263
-0.00270009
-0.00276976
-0.00284156
-0.00291538
-0.00299119
-0.00306889
-0.00314844
-0.00322984
-0.00331307
-0.00339812
-0.00348499
-0.00357365