/*--------------------------------*- C++ -*----------------------------------*\
| =========                 |                                                 |
| \\      /  F ield         | OpenFOAM: The Open Source CFD Toolbox           |
|  \\    /   O peration     | Version:  2106                                  |
|   \\  /    A nd           | Website:  www.openfoam.com                      |
|    \\/     M anipulation  |                                                 |
\*---------------------------------------------------------------------------*/
FoamFile
{
    version     2.0;
    format      ascii;
    arch        "LSB;label=32;scalar=64";
    class       volVectorField;
    location    "0.025";
    object      U;
}
// * * * * * * * * * * * * * * * * * * * * * * * * * * * * * * * * * * * * * //

dimensions      [0 1 -1 0 0 0 0];

internalField   nonuniform List<vector> 
9600
(
(1 7.95497e-08 0)
(0.999983 9.96528e-07 0)
(0.999944 1.77509e-06 0)
(0.999902 2.66179e-06 0)
(0.999831 1.38435e-06 0)
(0.999853 1.30324e-05 0)
(0.999471 -4.47056e-05 0)
(1.0006 0.000220033 0)
(0.996452 -0.000781714 0)
(1.00891 0.00234898 0)
(0.975464 -0.00558851 0)
(1.05115 0.00957496 0)
(0.910582 -0.0120697 0)
(1.12327 0.00497787 0)
(0.875113 0.00499685 0)
(1.1035 -0.0115673 0)
(0.898539 0.000232738 0)
(1.11276 0.00690052 0)
(0.855337 -0.00167916 0)
(1.11272 -0.00695124 0)
(1 1.82881e-07 0)
(0.999983 1.44034e-06 0)
(0.999944 2.46644e-06 0)
(0.999902 3.62873e-06 0)
(0.999831 2.14327e-06 0)
(0.999849 1.60052e-05 0)
(0.999492 -5.05921e-05 0)
(1.00049 0.000250526 0)
(0.996947 -0.000876343 0)
(1.00709 0.00261482 0)
(0.981336 -0.00619759 0)
(1.03789 0.0104956 0)
(0.943119 -0.0133114 0)
(1.08426 0.00535811 0)
(0.938083 0.00552394 0)
(1.04696 -0.0120652 0)
(0.959624 -0.000373785 0)
(1.03665 0.00794842 0)
(0.963681 -0.00054099 0)
(0.995029 -0.00897067 0)
(1 2.8168e-07 0)
(0.999983 1.87061e-06 0)
(0.999944 3.13175e-06 0)
(0.999902 4.55086e-06 0)
(0.999832 2.92292e-06 0)
(0.999845 1.847e-05 0)
(0.999521 -5.39016e-05 0)
(1.00034 0.000269307 0)
(0.997601 -0.000927285 0)
(1.00471 0.00274983 0)
(0.988528 -0.00648032 0)
(1.02083 0.0108868 0)
(0.975563 -0.0136788 0)
(1.03682 0.00539615 0)
(0.987052 0.00626539 0)
(1.01052 -0.0122937 0)
(0.989623 -0.000138753 0)
(1.00827 0.00791316 0)
(0.992832 0.000471271 0)
(0.9849 -0.00820916 0)
(1 3.77965e-07 0)
(0.999983 2.2856e-06 0)
(0.999944 3.77558e-06 0)
(0.999902 5.4363e-06 0)
(0.999833 3.72017e-06 0)
(0.999841 2.05746e-05 0)
(0.999544 -5.55655e-05 0)
(1.00022 0.000279977 0)
(0.998085 -0.000946576 0)
(1.00298 0.00278029 0)
(0.993433 -0.00650785 0)
(1.00887 0.0107503 0)
(0.993563 -0.0134545 0)
(1.00676 0.00489783 0)
(1.00349 0.00669822 0)
(1.00155 -0.0120674 0)
(0.990914 -0.000225675 0)
(1.00306 0.00773114 0)
(0.998942 0.00126653 0)
(0.988294 -0.00743387 0)
(1 4.77737e-07 0)
(0.999983 2.71821e-06 0)
(0.999944 4.44822e-06 0)
(0.999902 6.35654e-06 0)
(0.999833 4.58446e-06 0)
(0.999838 2.25873e-05 0)
(0.999557 -5.63528e-05 0)
(1.00016 0.000286963 0)
(0.998341 -0.000951618 0)
(1.0021 0.00276774 0)
(0.995757 -0.00643218 0)
(1.00315 0.0104539 0)
(1.0004 -0.0130457 0)
(0.994312 0.00439945 0)
(1.00469 0.00677644 0)
(1.00215 -0.011657 0)
(0.987344 -0.000350722 0)
(0.998598 0.00735043 0)
(1.0017 0.00188183 0)
(0.989114 -0.00659959 0)
(1 5.82926e-07 0)
(0.999983 3.17316e-06 0)
(0.999944 5.15765e-06 0)
(0.999902 7.32222e-06 0)
(0.999833 5.51948e-06 0)
(0.999837 2.4583e-05 0)
(0.999564 -5.65895e-05 0)
(1.00013 0.00029193 0)
(0.998456 -0.000948779 0)
(1.00173 0.00273358 0)
(0.996639 -0.00630143 0)
(1.00106 0.0101094 0)
(1.0023 -0.0125401 0)
(0.990762 0.00402261 0)
(1.00313 0.00669598 0)
(1.00319 -0.0112013 0)
(0.986047 -0.000336446 0)
(0.994822 0.00693319 0)
(1.00245 0.00226065 0)
(0.990015 -0.00559386 0)
(1 6.92759e-07 0)
(0.999983 3.6494e-06 0)
(0.999945 5.9016e-06 0)
(0.999902 8.331e-06 0)
(0.999834 6.51599e-06 0)
(0.999836 2.65965e-05 0)
(0.999569 -5.6511e-05 0)
(1.00011 0.00029596 0)
(0.998517 -0.000942159 0)
(1.00156 0.00268967 0)
(0.996977 -0.00614357 0)
(1.00039 0.00974197 0)
(1.00266 -0.0119762 0)
(0.99023 0.00367711 0)
(1.00208 0.00658009 0)
(1.00344 -0.0107651 0)
(0.986215 -0.0002141 0)
(0.993044 0.00654983 0)
(1.00217 0.00243377 0)
(0.991037 -0.00447896 0)
(1 8.07355e-07 0)
(0.999983 4.14712e-06 0)
(0.999945 6.68046e-06 0)
(0.999902 9.38374e-06 0)
(0.999834 7.57341e-06 0)
(0.999835 2.86392e-05 0)
(0.999573 -5.6178e-05 0)
(1.0001 0.000299367 0)
(0.998562 -0.000933066 0)
(1.00145 0.00263993 0)
(0.997164 -0.00597093 0)
(1.00012 0.00936091 0)
(1.00264 -0.0113842 0)
(0.990458 0.00332683 0)
(1.00151 0.0064638 0)
(1.00334 -0.0103382 0)
(0.986749 -6.10929e-05 0)
(0.99253 0.0062199 0)
(1.00171 0.0025065 0)
(0.991759 -0.00335244 0)
(1 9.26899e-07 0)
(0.999983 4.66724e-06 0)
(0.999945 7.49599e-06 0)
(0.999902 1.04827e-05 0)
(0.999834 8.69475e-06 0)
(0.999834 3.07142e-05 0)
(0.999577 -5.55918e-05 0)
(1.00008 0.000302193 0)
(0.998604 -0.000921694 0)
(1.00135 0.00258486 0)
(0.997318 -0.00578621 0)
(0.999943 0.00896582 0)
(1.00255 -0.0107733 0)
(0.99084 0.00296695 0)
(1.00111 0.00635302 0)
(1.00317 -0.0099071 0)
(0.987314 7.98875e-05 0)
(0.992468 0.00595685 0)
(1.00132 0.00250647 0)
(0.99222 -0.00225689 0)
(1 1.05158e-06 0)
(0.999983 5.21082e-06 0)
(0.999945 8.34999e-06 0)
(0.999902 1.16299e-05 0)
(0.999834 9.88349e-06 0)
(0.999833 3.28218e-05 0)
(0.999581 -5.47388e-05 0)
(1.00007 0.000304424 0)
(0.998646 -0.000908045 0)
(1.00125 0.00252457 0)
(0.997466 -0.0055904 0)
(0.99979 0.00855686 0)
(1.00245 -0.0101464 0)
(0.991251 0.00259605 0)
(1.00075 0.00625082 0)
(1.00298 -0.00946806 0)
(0.987869 0.000190593 0)
(0.992515 0.00575913 0)
(1.001 0.00246735 0)
(0.99257 -0.00122507 0)
(1 1.1816e-06 0)
(0.999983 5.77889e-06 0)
(0.999945 9.24421e-06 0)
(0.999902 1.28274e-05 0)
(0.999835 1.11432e-05 0)
(0.999833 3.49612e-05 0)
(0.999585 -5.36021e-05 0)
(1.00005 0.000306028 0)
(0.998689 -0.000892056 0)
(1.00115 0.0024591 0)
(0.997611 -0.00538405 0)
(0.999646 0.00813556 0)
(1.00233 -0.00950743 0)
(0.99167 0.00221875 0)
(1.00039 0.00615402 0)
(1.0028 -0.00901865 0)
(0.988417 0.000267411 0)
(0.992584 0.00562463 0)
(1.00073 0.00238421 0)
(0.992883 -0.0002662 0)
(1 1.31718e-06 0)
(0.999983 6.37251e-06 0)
(0.999945 1.01805e-05 0)
(0.999902 1.40774e-05 0)
(0.999835 1.24778e-05 0)
(0.999831 3.7132e-05 0)
(0.99959 -5.21646e-05 0)
(1.00004 0.00030698 0)
(0.998733 -0.000873675 0)
(1.00105 0.0023885 0)
(0.997754 -0.00516759 0)
(0.999509 0.00770336 0)
(1.00221 -0.00885913 0)
(0.992092 0.00183926 0)
(1.00004 0.00605887 0)
(1.00262 -0.00855653 0)
(0.988963 0.000310682 0)
(0.992657 0.00554918 0)
(1.0005 0.00225668 0)
(0.993191 0.000617092 0)
(1 1.45853e-06 0)
(0.999983 6.99279e-06 0)
(0.999945 1.11607e-05 0)
(0.999902 1.5382e-05 0)
(0.999835 1.38911e-05 0)
(0.99983 3.93336e-05 0)
(0.999595 -5.04087e-05 0)
(1.00002 0.000307253 0)
(0.998778 -0.000852862 0)
(1.00095 0.00231289 0)
(0.997894 -0.00494157 0)
(0.999379 0.00726199 0)
(1.00208 -0.00820474 0)
(0.992517 0.00146168 0)
(0.9997 0.00596102 0)
(1.00244 -0.00807775 0)
(0.989511 0.000320008 0)
(0.992731 0.00552012 0)
(1.00029 0.00213376 0)
(0.993502 0.00136676 0)
(1 1.6059e-06 0)
(0.999983 7.64092e-06 0)
(0.999945 1.21869e-05 0)
(0.999902 1.67437e-05 0)
(0.999836 1.53872e-05 0)
(0.999829 4.15656e-05 0)
(0.9996 -4.83179e-05 0)
(1 0.000306831 0)
(0.998822 -0.000829599 0)
(1.00085 0.00223247 0)
(0.998031 -0.00470677 0)
(0.999258 0.00681361 0)
(1.00194 -0.00754814 0)
(0.992943 0.0010909 0)
(0.999371 0.00585575 0)
(1.00226 -0.00757762 0)
(0.99006 0.000294718 0)
(0.992805 0.00552992 0)
(1.00011 0.0020241 0)
(0.993822 0.0019745 0)
(1 1.75952e-06 0)
(0.999983 8.31811e-06 0)
(0.999945 1.32612e-05 0)
(0.999902 1.81649e-05 0)
(0.999836 1.69705e-05 0)
(0.999828 4.3828e-05 0)
(0.999605 -4.58763e-05 0)
(0.999987 0.000305698 0)
(0.998867 -0.000803884 0)
(1.00075 0.00214751 0)
(0.998163 -0.00446409 0)
(0.999147 0.00636067 0)
(1.0018 -0.00689373 0)
(0.993368 0.000732625 0)
(0.999055 0.00573767 0)
(1.00207 -0.00705254 0)
(0.990613 0.000236433 0)
(0.992882 0.00556436 0)
(0.999946 0.00194618 0)
(0.994157 0.00244333 0)
(1 1.91966e-06 0)
(0.999983 9.02566e-06 0)
(0.999945 1.43856e-05 0)
(0.999902 1.96479e-05 0)
(0.999836 1.86453e-05 0)
(0.999827 4.6121e-05 0)
(0.99961 -4.3069e-05 0)
(0.99997 0.000303848 0)
(0.998912 -0.000775742 0)
(1.00065 0.00205831 0)
(0.99829 -0.00421453 0)
(0.999046 0.0059056 0)
(1.00164 -0.00624557 0)
(0.99379 0.000391721 0)
(0.998757 0.00560306 0)
(1.00188 -0.00650342 0)
(0.991169 0.000151247 0)
(0.992963 0.00561233 0)
(0.999795 0.00190484 0)
(0.994507 0.00277328 0)
(1 2.08659e-06 0)
(0.999983 9.76489e-06 0)
(0.999945 1.55626e-05 0)
(0.999902 2.11956e-05 0)
(0.999837 2.04161e-05 0)
(0.999826 4.84449e-05 0)
(0.999616 -3.98821e-05 0)
(0.999953 0.000301284 0)
(0.998957 -0.000745226 0)
(1.00055 0.0019653 0)
(0.998412 -0.00395934 0)
(0.998955 0.00545141 0)
(1.00149 -0.00560852 0)
(0.994207 7.35088e-05 0)
(0.998478 0.00544948 0)
(1.00167 -0.00593359 0)
(0.991728 4.64022e-05 0)
(0.99305 0.00565652 0)
(0.999649 0.00190972 0)
(0.994877 0.00297378 0)
(1 2.2606e-06 0)
(0.999983 1.05372e-05 0)
(0.999945 1.67945e-05 0)
(0.999902 2.28105e-05 0)
(0.999837 2.22877e-05 0)
(0.999824 5.0801e-05 0)
(0.999621 -3.63036e-05 0)
(0.999936 0.000298016 0)
(0.999001 -0.000712411 0)
(1.00046 0.00186896 0)
(0.998528 -0.00369986 0)
(0.998876 0.00500103 0)
(1.00132 -0.0049872 0)
(0.994615 -0.000215832 0)
(0.998223 0.00527379 0)
(1.00146 -0.00534286 0)
(0.992288 -7.21062e-05 0)
(0.993148 0.00568131 0)
(0.999503 0.00197439 0)
(0.995263 0.0030633 0)
(1 2.44198e-06 0)
(0.999983 1.13441e-05 0)
(0.999945 1.80836e-05 0)
(0.999902 2.44954e-05 0)
(0.999838 2.42648e-05 0)
(0.999823 5.31906e-05 0)
(0.999627 -3.23236e-05 0)
(0.999919 0.000294066 0)
(0.999045 -0.000677406 0)
(1.00037 0.00176984 0)
(0.998637 -0.00343758 0)
(0.998808 0.00455765 0)
(1.00115 -0.0043865 0)
(0.995014 -0.000472705 0)
(0.997993 0.00507333 0)
(1.00124 -0.00473581 0)
(0.992846 -0.000190555 0)
(0.993261 0.00567572 0)
(0.999353 0.00209692 0)
(0.995663 0.00306437 0)
(1 2.63104e-06 0)
(0.999983 1.2187e-05 0)
(0.999945 1.94325e-05 0)
(0.999902 2.62534e-05 0)
(0.999838 2.63522e-05 0)
(0.999822 5.5616e-05 0)
(0.999633 -2.79344e-05 0)
(0.999901 0.000289465 0)
(0.999088 -0.000640355 0)
(1.00028 0.00166861 0)
(0.998739 -0.00317417 0)
(0.998752 0.00412469 0)
(1.00098 -0.00381113 0)
(0.995399 -0.000694219 0)
(0.997792 0.00484772 0)
(1.001 -0.00411876 0)
(0.993398 -0.000292627 0)
(0.993393 0.005635 0)
(0.999195 0.00227477 0)
(0.99607 0.00299968 0)
(1 2.82813e-06 0)
(0.999983 1.30675e-05 0)
(0.999945 2.08439e-05 0)
(0.999902 2.80875e-05 0)
(0.999839 2.85547e-05 0)
(0.999821 5.80804e-05 0)
(0.999639 -2.31311e-05 0)
(0.999884 0.000284257 0)
(0.99913 -0.000601423 0)
(1.00019 0.00156594 0)
(0.998833 -0.00291125 0)
(0.998708 0.00370509 0)
(1.00081 -0.00326478 0)
(0.995769 -0.00087596 0)
(0.997621 0.00459881 0)
(1.00077 -0.00349892 0)
(0.993939 -0.000390221 0)
(0.993548 0.00555023 0)
(0.999026 0.00249575 0)
(0.996477 0.00289931 0)
(1 3.03356e-06 0)
(0.999983 1.39873e-05 0)
(0.999945 2.23204e-05 0)
(0.999902 3.00008e-05 0)
(0.99984 3.08772e-05 0)
(0.999819 6.05875e-05 0)
(0.999645 -1.79117e-05 0)
(0.999867 0.0002785 0)
(0.999171 -0.000560818 0)
(1.00011 0.00146263 0)
(0.998919 -0.00265071 0)
(0.998676 0.00330247 0)
(1.00064 -0.00275233 0)
(0.996122 -0.0010141 0)
(0.997483 0.00432876 0)
(1.00052 -0.00288644 0)
(0.994465 -0.000471548 0)
(0.993731 0.00541101 0)
(0.998849 0.00274812 0)
(0.996875 0.00279428 0)
(1 3.2477e-06 0)
(0.999983 1.4948e-05 0)
(0.999945 2.38648e-05 0)
(0.999902 3.19965e-05 0)
(0.99984 3.33245e-05 0)
(0.999818 6.31422e-05 0)
(0.999651 -1.22779e-05 0)
(0.999851 0.000272265 0)
(0.99921 -0.000518775 0)
(1.00003 0.0013595 0)
(0.998997 -0.00239436 0)
(0.998655 0.00291977 0)
(1.00047 -0.00227647 0)
(0.996455 -0.00110899 0)
(0.997378 0.00404158 0)
(1.00027 -0.00228845 0)
(0.994969 -0.00050325 0)
(0.993943 0.00522326 0)
(0.998667 0.00301799 0)
(0.997252 0.00270485 0)
(1 3.47091e-06 0)
(0.999983 1.59513e-05 0)
(0.999946 2.54799e-05 0)
(0.999902 3.40782e-05 0)
(0.999841 3.59014e-05 0)
(0.999817 6.57507e-05 0)
(0.999657 -6.23429e-06 0)
(0.999835 0.000265631 0)
(0.999248 -0.000475545 0)
(0.999961 0.00125738 0)
(0.999066 -0.00214388 0)
(0.998645 0.0025596 0)
(1.0003 -0.00183977 0)
(0.996765 -0.00116022 0)
(0.997306 0.00374109 0)
(1.00003 -0.00171601 0)
(0.995445 -0.000501584 0)
(0.994186 0.00499132 0)
(0.998484 0.00328557 0)
(0.9976 0.00264873 0)
(1 3.70357e-06 0)
(0.999983 1.6999e-05 0)
(0.999946 2.71686e-05 0)
(0.999902 3.62492e-05 0)
(0.999842 3.86124e-05 0)
(0.999816 6.84202e-05 0)
(0.999664 2.09793e-07 0)
(0.999819 0.000258697 0)
(0.999285 -0.000431427 0)
(0.999894 0.00115722 0)
(0.999128 -0.00190123 0)
(0.998645 0.00222493 0)
(1.00013 -0.00144474 0)
(0.997053 -0.00116891 0)
(0.997267 0.00343317 0)
(0.999789 -0.00117912 0)
(0.99589 -0.000467091 0)
(0.99446 0.00472425 0)
(0.998307 0.00353202 0)
(0.997909 0.00263535 0)
(1 3.94606e-06 0)
(0.999983 1.80929e-05 0)
(0.999946 2.89339e-05 0)
(0.999903 3.85132e-05 0)
(0.999843 4.14622e-05 0)
(0.999814 7.11591e-05 0)
(0.99967 7.04187e-06 0)
(0.999804 0.000251569 0)
(0.999319 -0.000386718 0)
(0.999832 0.00105987 0)
(0.999181 -0.00166795 0)
(0.998654 0.00191757 0)
(0.999978 -0.00109153 0)
(0.997316 -0.00113928 0)
(0.99726 0.0031252 0)
(0.999558 -0.000684913 0)
(0.996298 -0.000380975 0)
(0.994762 0.00443282 0)
(0.998145 0.0037407 0)
(0.998173 0.00266722 0)
(1 4.19878e-06 0)
(0.999983 1.92348e-05 0)
(0.999946 3.07788e-05 0)
(0.999903 4.08739e-05 0)
(0.999844 4.44548e-05 0)
(0.999813 7.39774e-05 0)
(0.999676 1.42456e-05 0)
(0.999789 0.000244366 0)
(0.999351 -0.000341732 0)
(0.999775 0.000966187 0)
(0.999226 -0.00144549 0)
(0.998672 0.00163904 0)
(0.99983 -0.000780332 0)
(0.997553 -0.00107412 0)
(0.997282 0.00282277 0)
(0.999342 -0.000239662 0)
(0.996668 -0.000259256 0)
(0.995087 0.00412701 0)
(0.998004 0.00390011 0)
(0.998388 0.00274129 0)
(1 4.46214e-06 0)
(0.999983 2.04267e-05 0)
(0.999946 3.27062e-05 0)
(0.999903 4.33352e-05 0)
(0.999844 4.75944e-05 0)
(0.999812 7.6886e-05 0)
(0.999682 2.18003e-05 0)
(0.999776 0.000237217 0)
(0.999381 -0.000296814 0)
(0.999725 0.000877087 0)
(0.999263 -0.0012354 0)
(0.998697 0.00139091 0)
(0.999692 -0.000510679 0)
(0.997766 -0.000978699 0)
(0.997331 0.00253191 0)
(0.999143 0.000151973 0)
(0.996997 -0.000106262 0)
(0.995429 0.00382108 0)
(0.997891 0.00400342 0)
(0.998557 0.00284797 0)
(1 4.73654e-06 0)
(0.999984 2.16703e-05 0)
(0.999946 3.47192e-05 0)
(0.999903 4.59009e-05 0)
(0.999845 5.08846e-05 0)
(0.999811 7.98975e-05 0)
(0.999688 2.96834e-05 0)
(0.999763 0.000230251 0)
(0.999409 -0.000252262 0)
(0.999679 0.00079324 0)
(0.999294 -0.00103846 0)
(0.998727 0.0011731 0)
(0.999566 -0.000280144 0)
(0.997954 -0.000858208 0)
(0.997402 0.00226031 0)
(0.998966 0.00048829 0)
(0.997285 7.85664e-05 0)
(0.995782 0.00352796 0)
(0.997813 0.0040479 0)
(0.998681 0.0029741 0)
(1 5.02242e-06 0)
(0.999984 2.29677e-05 0)
(0.999947 3.68208e-05 0)
(0.999903 4.85749e-05 0)
(0.999846 5.43288e-05 0)
(0.999811 8.30255e-05 0)
(0.999693 3.7868e-05 0)
(0.999751 0.000223611 0)
(0.999435 -0.00020841 0)
(0.99964 0.000715402 0)
(0.999319 -0.000855666 0)
(0.998763 0.000985737 0)
(0.999454 -8.61915e-05 0)
(0.998118 -0.00071713 0)
(0.997493 0.00201417 0)
(0.998815 0.000770454 0)
(0.997535 0.000281968 0)
(0.996137 0.00325709 0)
(0.997772 0.00403552 0)
(0.998766 0.00310511 0)
(1 5.32019e-06 0)
(0.999984 2.43206e-05 0)
(0.999947 3.9014e-05 0)
(0.999904 5.13614e-05 0)
(0.999848 5.79301e-05 0)
(0.99981 8.62847e-05 0)
(0.999699 4.63258e-05 0)
(0.999741 0.000217436 0)
(0.999458 -0.000165557 0)
(0.999606 0.000644196 0)
(0.999338 -0.00068772 0)
(0.998802 0.000828467 0)
(0.999355 7.50323e-05 0)
(0.99826 -0.00056313 0)
(0.9976 0.00179609 0)
(0.998692 0.000999055 0)
(0.997748 0.000493642 0)
(0.996487 0.00301588 0)
(0.99777 0.00397256 0)
(0.998823 0.00322679 0)
(1 5.63027e-06 0)
(0.999984 2.57309e-05 0)
(0.999947 4.13016e-05 0)
(0.999904 5.42643e-05 0)
(0.999849 6.1691e-05 0)
(0.99981 8.96905e-05 0)
(0.999704 5.50268e-05 0)
(0.999731 0.000211858 0)
(0.99948 -0.000123957 0)
(0.999577 0.000579984 0)
(0.999352 -0.000534303 0)
(0.998843 0.000698554 0)
(0.999272 0.000206951 0)
(0.998382 -0.000402533 0)
(0.997717 0.00160904 0)
(0.998598 0.00117724 0)
(0.99793 0.000703625 0)
(0.996825 0.0028085 0)
(0.997806 0.00386821 0)
(0.998858 0.0033269 0)
(1 5.95309e-06 0)
(0.999984 2.72006e-05 0)
(0.999948 4.36866e-05 0)
(0.999905 5.72876e-05 0)
(0.99985 6.56136e-05 0)
(0.999809 9.32591e-05 0)
(0.99971 6.39399e-05 0)
(0.999723 0.00020701 0)
(0.999499 -8.38554e-05 0)
(0.999554 0.000523138 0)
(0.999363 -0.000395669 0)
(0.998886 0.000596229 0)
(0.999203 0.000309365 0)
(0.998487 -0.000241309 0)
(0.997842 0.00145319 0)
(0.998532 0.00131068 0)
(0.998084 0.000904345 0)
(0.997145 0.00263665 0)
(0.997876 0.00373342 0)
(0.998883 0.0033965 0)
(1 6.28906e-06 0)
(0.999984 2.87313e-05 0)
(0.999948 4.61715e-05 0)
(0.999905 6.04353e-05 0)
(0.999851 6.96997e-05 0)
(0.999809 9.70069e-05 0)
(0.999715 7.30345e-05 0)
(0.999715 0.000203012 0)
(0.999516 -4.54442e-05 0)
(0.999535 0.000473837 0)
(0.999371 -0.0002715 0)
(0.99893 0.000518764 0)
(0.999149 0.00038915 0)
(0.998577 -8.39209e-05 0)
(0.99797 0.00132827 0)
(0.998494 0.00140581 0)
(0.998216 0.00108895 0)
(0.997444 0.00249885 0)
(0.997976 0.00357923 0)
(0.998906 0.00343052 0)
(1 6.63859e-06 0)
(0.999984 3.03248e-05 0)
(0.999948 4.87589e-05 0)
(0.999906 6.37109e-05 0)
(0.999853 7.39505e-05 0)
(0.999809 0.00010095 0)
(0.99972 8.22805e-05 0)
(0.999709 0.000199973 0)
(0.999531 -8.89118e-06 0)
(0.999521 0.000432175 0)
(0.999377 -0.000161281 0)
(0.998973 0.000462206 0)
(0.99911 0.000453195 0)
(0.998654 6.71518e-05 0)
(0.998099 0.001233 0)
(0.998483 0.00146915 0)
(0.998331 0.00125233 0)
(0.997718 0.00239153 0)
(0.998099 0.0034159 0)
(0.998933 0.00342787 0)
(1 7.00205e-06 0)
(0.999984 3.19826e-05 0)
(0.999949 5.14511e-05 0)
(0.999906 6.7118e-05 0)
(0.999854 7.83666e-05 0)
(0.99981 0.000105105 0)
(0.999725 9.16502e-05 0)
(0.999705 0.000197978 0)
(0.999545 2.572e-05 0)
(0.999511 0.000397942 0)
(0.999382 -6.3651e-05 0)
(0.999016 0.000425246 0)
(0.999084 0.000503393 0)
(0.998722 0.000207222 0)
(0.998227 0.00116415 0)
(0.998495 0.00150707 0)
(0.998434 0.0013913 0)
(0.997967 0.00230966 0)
(0.998239 0.00325187 0)
(0.998969 0.00339084 0)
(1 7.37983e-06 0)
(0.999984 3.37062e-05 0)
(0.999949 5.425e-05 0)
(0.999907 7.06599e-05 0)
(0.999855 8.29482e-05 0)
(0.99981 0.000109485 0)
(0.99973 0.000101118 0)
(0.999701 0.000197101 0)
(0.999558 5.83384e-05 0)
(0.999505 0.000370882 0)
(0.999386 2.13614e-05 0)
(0.999057 0.000404707 0)
(0.999071 0.000542974 0)
(0.998783 0.000334701 0)
(0.99835 0.00111843 0)
(0.998528 0.00152571 0)
(0.998528 0.00150451 0)
(0.998191 0.00224752 0)
(0.998389 0.00309346 0)
(0.999017 0.00332422 0)
(1 7.77226e-06 0)
(0.999984 3.54967e-05 0)
(0.99995 5.71572e-05 0)
(0.999908 7.43392e-05 0)
(0.999857 8.76948e-05 0)
(0.999811 0.000114104 0)
(0.999734 0.000110661 0)
(0.999699 0.000197388 0)
(0.999569 8.89548e-05 0)
(0.999502 0.000350651 0)
(0.999391 9.49357e-05 0)
(0.999097 0.000397735 0)
(0.99907 0.000574892 0)
(0.998839 0.000448487 0)
(0.998469 0.00109186 0)
(0.998578 0.0015304 0)
(0.998618 0.00159211 0)
(0.998391 0.00219939 0)
(0.998544 0.00294469 0)
(0.999077 0.00323424 0)
(1 8.17964e-06 0)
(0.999985 3.73553e-05 0)
(0.99995 6.01741e-05 0)
(0.999908 7.8158e-05 0)
(0.999859 9.26052e-05 0)
(0.999812 0.000118973 0)
(0.999739 0.00012026 0)
(0.999697 0.000198864 0)
(0.99958 0.000117613 0)
(0.999503 0.000336722 0)
(0.999397 0.00015961 0)
(0.999137 0.000401693 0)
(0.999079 0.000601544 0)
(0.998892 0.000548131 0)
(0.998583 0.00108032 0)
(0.998642 0.00152556 0)
(0.998705 0.00165553 0)
(0.998569 0.00215998 0)
(0.998698 0.00280753 0)
(0.999148 0.00312753 0)
(1 8.60221e-06 0)
(0.999985 3.92826e-05 0)
(0.999951 6.33012e-05 0)
(0.999909 8.21179e-05 0)
(0.999861 9.76774e-05 0)
(0.999814 0.000124099 0)
(0.999744 0.000129899 0)
(0.999697 0.00020153 0)
(0.99959 0.000144391 0)
(0.999506 0.000328556 0)
(0.999405 0.000215848 0)
(0.999175 0.00041402 0)
(0.999096 0.000624774 0)
(0.998944 0.000633832 0)
(0.99869 0.0010798 0)
(0.998717 0.00151464 0)
(0.998792 0.00169709 0)
(0.998729 0.00212483 0)
(0.998847 0.00268224 0)
(0.999229 0.00301032 0)
(1 9.04017e-06 0)
(0.999985 4.12791e-05 0)
(0.999951 6.65388e-05 0)
(0.999911 8.62194e-05 0)
(0.999863 0.000102909 0)
(0.999816 0.00012949 0)
(0.999749 0.000139565 0)
(0.999699 0.00020536 0)
(0.999599 0.000169395 0)
(0.999512 0.000325496 0)
(0.999414 0.000264805 0)
(0.999212 0.00043245 0)
(0.999121 0.000645902 0)
(0.998996 0.00070629 0)
(0.998792 0.00108659 0)
(0.998799 0.00150012 0)
(0.99888 0.00171961 0)
(0.998872 0.00209045 0)
(0.998989 0.00256793 0)
(0.999316 0.00288785 0)
(1 9.49363e-06 0)
(0.999985 4.33445e-05 0)
(0.999952 6.98861e-05 0)
(0.999912 9.04619e-05 0)
(0.999865 0.000108295 0)
(0.999818 0.000135144 0)
(0.999754 0.000149249 0)
(0.999701 0.000210308 0)
(0.999609 0.000192755 0)
(0.99952 0.000326862 0)
(0.999425 0.000307563 0)
(0.999249 0.00045498 0)
(0.999152 0.000665776 0)
(0.999048 0.000766537 0)
(0.998888 0.00109749 0)
(0.998886 0.00148358 0)
(0.998968 0.00172611 0)
(0.999002 0.00205438 0)
(0.999123 0.00246301 0)
(0.999406 0.00276416 0)
(1 9.96263e-06 0)
(0.999985 4.54784e-05 0)
(0.999953 7.33417e-05 0)
(0.999913 9.48438e-05 0)
(0.999867 0.000113831 0)
(0.99982 0.00014106 0)
(0.999759 0.000158941 0)
(0.999704 0.000216304 0)
(0.999619 0.00021461 0)
(0.99953 0.000331954 0)
(0.999439 0.000345096 0)
(0.999285 0.000479908 0)
(0.999189 0.000684834 0)
(0.999101 0.000815792 0)
(0.998979 0.00110985 0)
(0.998976 0.0014659 0)
(0.999057 0.00171953 0)
(0.999121 0.00201507 0)
(0.999247 0.00236564 0)
(0.999497 0.00264203 0)
(1 1.04471e-05 0)
(0.999985 4.76797e-05 0)
(0.999953 7.6903e-05 0)
(0.999915 9.93617e-05 0)
(0.99987 0.000119511 0)
(0.999823 0.00014723 0)
(0.999764 0.000168633 0)
(0.999709 0.000223256 0)
(0.999629 0.0002351 0)
(0.999543 0.000340078 0)
(0.999455 0.000378247 0)
(0.999321 0.000505825 0)
(0.999229 0.000703198 0)
(0.999156 0.000855329 0)
(0.999066 0.00112158 0)
(0.999066 0.0014474 0)
(0.999146 0.00170256 0)
(0.999231 0.00197181 0)
(0.999362 0.00227402 0)
(0.999587 0.00252316 0)
(1 1.09468e-05 0)
(0.999986 4.99464e-05 0)
(0.999954 8.05663e-05 0)
(0.999916 0.000104011 0)
(0.999872 0.000125325 0)
(0.999827 0.00015364 0)
(0.99977 0.000178315 0)
(0.999715 0.000231058 0)
(0.99964 0.000254356 0)
(0.999557 0.000350565 0)
(0.999474 0.000407712 0)
(0.999358 0.000531606 0)
(0.999273 0.000720754 0)
(0.999213 0.000886381 0)
(0.999149 0.00113116 0)
(0.999156 0.00142805 0)
(0.999235 0.00167749 0)
(0.999332 0.00192444 0)
(0.999468 0.00218659 0)
(0.999673 0.00240842 0)
(1 1.14614e-05 0)
(0.999986 5.2276e-05 0)
(0.999955 8.43266e-05 0)
(0.999918 0.000108783 0)
(0.999875 0.000131262 0)
(0.99983 0.000160273 0)
(0.999776 0.000187976 0)
(0.999721 0.000239585 0)
(0.999651 0.000272495 0)
(0.999573 0.00036278 0)
(0.999495 0.000434044 0)
(0.999395 0.000556378 0)
(0.999319 0.000737235 0)
(0.99927 0.00091007 0)
(0.999229 0.00113759 0)
(0.999244 0.0014076 0)
(0.999323 0.00164624 0)
(0.999428 0.00187326 0)
(0.999565 0.00210213 0)
(0.999755 0.00229808 0)
(1 1.19903e-05 0)
(0.999986 5.46646e-05 0)
(0.999956 8.81772e-05 0)
(0.99992 0.00011367 0)
(0.999879 0.00013731 0)
(0.999835 0.000167105 0)
(0.999783 0.0001976 0)
(0.999729 0.000248704 0)
(0.999663 0.000289608 0)
(0.99959 0.000376138 0)
(0.999518 0.000457655 0)
(0.999432 0.00057949 0)
(0.999367 0.000752295 0)
(0.999329 0.000927374 0)
(0.999306 0.00114023 0)
(0.99933 0.00138575 0)
(0.999408 0.0016103 0)
(0.999517 0.00181879 0)
(0.999654 0.00201978 0)
(0.999831 0.00219205 0)
(1 1.25328e-05 0)
(0.999987 5.71078e-05 0)
(0.999958 9.21096e-05 0)
(0.999922 0.00011866 0)
(0.999882 0.000143451 0)
(0.999839 0.000174103 0)
(0.99979 0.000207162 0)
(0.999738 0.00025827 0)
(0.999677 0.000305763 0)
(0.999609 0.000390111 0)
(0.999543 0.000478837 0)
(0.999471 0.000600473 0)
(0.999416 0.000765567 0)
(0.999388 0.00093911 0)
(0.99938 0.00113882 0)
(0.999412 0.00136217 0)
(0.999491 0.00157082 0)
(0.999601 0.00176169 0)
(0.999737 0.00193902 0)
(0.999902 0.00209009 0)
(1 1.30879e-05 0)
(0.999987 5.95994e-05 0)
(0.999959 9.6113e-05 0)
(0.999924 0.000123736 0)
(0.999886 0.000149664 0)
(0.999845 0.000181232 0)
(0.999798 0.000216635 0)
(0.999748 0.00026813 0)
(0.999691 0.000320994 0)
(0.999629 0.000404224 0)
(0.99957 0.00049777 0)
(0.99951 0.000619004 0)
(0.999465 0.000776704 0)
(0.999448 0.00094594 0)
(0.999452 0.00113332 0)
(0.999491 0.00133663 0)
(0.999571 0.00152862 0)
(0.99968 0.00170263 0)
(0.999813 0.00185956 0)
(0.999968 0.00199191 0)
(1 1.36543e-05 0)
(0.999987 6.21321e-05 0)
(0.99996 0.000100174 0)
(0.999927 0.000128881 0)
(0.99989 0.000155925 0)
(0.99985 0.000188447 0)
(0.999806 0.000225978 0)
(0.999759 0.000278128 0)
(0.999707 0.00033531 0)
(0.999651 0.000418063 0)
(0.999599 0.000514553 0)
(0.999549 0.000634874 0)
(0.999516 0.000785412 0)
(0.999507 0.000948387 0)
(0.999522 0.00112385 0)
(0.999567 0.00130899 0)
(0.999648 0.00148435 0)
(0.999755 0.00164221 0)
(0.999883 0.00178133 0)
(1.00003 0.00189724 0)
(1 1.42304e-05 0)
(0.999988 6.46967e-05 0)
(0.999962 0.000104278 0)
(0.99993 0.000134071 0)
(0.999894 0.000162204 0)
(0.999857 0.000195697 0)
(0.999815 0.000235144 0)
(0.999771 0.000288107 0)
(0.999723 0.000348687 0)
(0.999674 0.000431272 0)
(0.999629 0.000529218 0)
(0.99959 0.000647957 0)
(0.999566 0.000791466 0)
(0.999566 0.000946866 0)
(0.999589 0.00111065 0)
(0.99964 0.0012792 0)
(0.99972 0.00143845 0)
(0.999825 0.00158097 0)
(0.999947 0.00170434 0)
(1.00008 0.00180585 0)
(1 1.48141e-05 0)
(0.999988 6.72824e-05 0)
(0.999963 0.000108405 0)
(0.999933 0.00013928 0)
(0.999899 0.000168465 0)
(0.999863 0.000202924 0)
(0.999825 0.000244075 0)
(0.999784 0.000297906 0)
(0.999741 0.00036108 0)
(0.999698 0.000443544 0)
(0.99966 0.000541752 0)
(0.99963 0.000658188 0)
(0.999616 0.000794713 0)
(0.999624 0.000941713 0)
(0.999654 0.00109398 0)
(0.999709 0.00124731 0)
(0.999789 0.00139129 0)
(0.999891 0.00151936 0)
(1.00001 0.00162869 0)
(1.00014 0.00171758 0)
(1 1.5403e-05 0)
(0.999989 6.98762e-05 0)
(0.999965 0.000112533 0)
(0.999936 0.000144477 0)
(0.999904 0.000174669 0)
(0.999871 0.000210062 0)
(0.999835 0.000252701 0)
(0.999798 0.000307368 0)
(0.99976 0.000372419 0)
(0.999723 0.00045462 0)
(0.999693 0.000552118 0)
(0.999672 0.000665545 0)
(0.999666 0.00079507 0)
(0.99968 0.000933205 0)
(0.999716 0.00107417 0)
(0.999774 0.00121345 0)
(0.999854 0.00134313 0)
(0.999952 0.00145775 0)
(1.00006 0.00155448 0)
(1.00018 0.00163231 0)
(1 1.59942e-05 0)
(0.999989 7.24627e-05 0)
(0.999967 0.000116637 0)
(0.99994 0.000149624 0)
(0.99991 0.000180766 0)
(0.999879 0.000217041 0)
(0.999846 0.000260945 0)
(0.999813 0.000316336 0)
(0.99978 0.000382621 0)
(0.999749 0.000464282 0)
(0.999726 0.000560268 0)
(0.999713 0.000670039 0)
(0.999715 0.000792517 0)
(0.999735 0.000921588 0)
(0.999776 0.00105152 0)
(0.999836 0.00117779 0)
(0.999915 0.00129423 0)
(1.00001 0.00139642 0)
(1.00011 0.00148185 0)
(1.00022 0.00154993 0)
(1 1.65842e-05 0)
(0.99999 7.5024e-05 0)
(0.999969 0.000120685 0)
(0.999943 0.00015468 0)
(0.999916 0.000186703 0)
(0.999887 0.000223779 0)
(0.999858 0.000268718 0)
(0.999829 0.000324659 0)
(0.999801 0.00039159 0)
(0.999776 0.000472352 0)
(0.99976 0.000566153 0)
(0.999754 0.000671708 0)
(0.999763 0.000787086 0)
(0.999789 0.000907082 0)
(0.999833 0.00102634 0)
(0.999895 0.00114054 0)
(0.999972 0.00124478 0)
(1.00006 0.00133559 0)
(1.00016 0.0014109 0)
(1.00026 0.00147039 0)
(1 1.71686e-05 0)
(0.999991 7.75396e-05 0)
(0.999971 0.000124643 0)
(0.999948 0.000159597 0)
(0.999922 0.000192419 0)
(0.999897 0.000230193 0)
(0.999871 0.000275925 0)
(0.999845 0.000332188 0)
(0.999822 0.000399225 0)
(0.999804 0.000478682 0)
(0.999794 0.000569732 0)
(0.999795 0.000670611 0)
(0.99981 0.000778855 0)
(0.99984 0.000889898 0)
(0.999887 0.000998898 0)
(0.99995 0.0011019 0)
(1.00002 0.00119498 0)
(1.00011 0.00127544 0)
(1.0002 0.00134168 0)
(1.0003 0.00139361 0)
(1 1.77428e-05 0)
(0.999991 7.99857e-05 0)
(0.999973 0.000128471 0)
(0.999952 0.000164322 0)
(0.999929 0.000197845 0)
(0.999906 0.000236189 0)
(0.999884 0.000282465 0)
(0.999863 0.000338783 0)
(0.999845 0.000405427 0)
(0.999833 0.00048316 0)
(0.999828 0.000570978 0)
(0.999835 0.00066682 0)
(0.999855 0.000767931 0)
(0.99989 0.000870243 0)
(0.999939 0.000969473 0)
(1 0.00106212 0)
(1.00007 0.00114501 0)
(1.00016 0.00121611 0)
(1.00024 0.00127424 0)
(1.00033 0.00131952 0)
(1 1.83009e-05 0)
(0.999992 8.23352e-05 0)
(0.999976 0.000132126 0)
(0.999957 0.000168793 0)
(0.999937 0.000202908 0)
(0.999917 0.00024167 0)
(0.999898 0.000288231 0)
(0.999881 0.00034431 0)
(0.999868 0.000410097 0)
(0.999861 0.000485696 0)
(0.999863 0.000569882 0)
(0.999875 0.00066042 0)
(0.9999 0.000754448 0)
(0.999938 0.000848322 0)
(0.999988 0.000938312 0)
(1.00005 0.0010214 0)
(1.00012 0.00109503 0)
(1.0002 0.00115769 0)
(1.00028 0.00120861 0)
(1.00036 0.00124803 0)
(1 1.88365e-05 0)
(0.999993 8.45577e-05 0)
(0.999979 0.000135556 0)
(0.999962 0.000172945 0)
(0.999944 0.000207524 0)
(0.999928 0.000246536 0)
(0.999912 0.000293114 0)
(0.9999 0.000348642 0)
(0.999892 0.000413144 0)
(0.99989 0.000486227 0)
(0.999897 0.000566453 0)
(0.999914 0.000651508 0)
(0.999943 0.000738557 0)
(0.999983 0.000824339 0)
(1.00003 0.000905648 0)
(1.00009 0.00097993 0)
(1.00016 0.00104517 0)
(1.00024 0.00110028 0)
(1.00031 0.00114478 0)
(1.00039 0.00117906 0)
(1 1.93421e-05 0)
(0.999994 8.6619e-05 0)
(0.999981 0.000138706 0)
(0.999967 0.000176706 0)
(0.999952 0.000211607 0)
(0.999939 0.000250682 0)
(0.999928 0.000297004 0)
(0.999919 0.000351666 0)
(0.999916 0.000414489 0)
(0.999919 0.000484711 0)
(0.999931 0.000560719 0)
(0.999952 0.000640194 0)
(0.999984 0.000720417 0)
(1.00003 0.000798494 0)
(1.00008 0.000871694 0)
(1.00014 0.000937906 0)
(1.0002 0.00099557 0)
(1.00027 0.00104393 0)
(1.00034 0.00108275 0)
(1.00041 0.00111251 0)
(1 1.98093e-05 0)
(0.999995 8.84813e-05 0)
(0.999984 0.000141515 0)
(0.999973 0.000179995 0)
(0.999961 0.000215064 0)
(0.999951 0.000254001 0)
(0.999943 0.000299792 0)
(0.999939 0.000353275 0)
(0.99994 0.000414063 0)