/*--------------------------------*- C++ -*----------------------------------*\
| =========                 |                                                 |
| \\      /  F ield         | OpenFOAM: The Open Source CFD Toolbox           |
|  \\    /   O peration     | Version:  2106                                  |
|   \\  /    A nd           | Website:  www.openfoam.com                      |
|    \\/     M anipulation  |                                                 |
\*---------------------------------------------------------------------------*/
FoamFile
{
    version     2.0;
    format      ascii;
    arch        "LSB;label=32;scalar=64";
    class       volVectorField;
    location    "0.74";
    object      U;
}
// * * * * * * * * * * * * * * * * * * * * * * * * * * * * * * * * * * * * * //

dimensions      [0 1 -1 0 0 0 0];

internalField   nonuniform List<vector> 
9600
(
(0.837023 -0.00296784 0)
(1.17077 0.00500698 0)
(0.860398 -0.0100562 0)
(1.14719 0.00425826 0)
(0.895895 -0.00697293 0)
(1.14888 0.00629253 0)
(0.881674 0.00310309 0)
(1.11497 0.00107747 0)
(0.912325 -0.00396286 0)
(1.11186 -0.00555161 0)
(0.937541 -0.00223653 0)
(1.13645 -0.0119147 0)
(0.933772 0.00202186 0)
(1.15548 -0.00701827 0)
(0.916996 0.00590927 0)
(1.16724 -0.00012138 0)
(0.890589 0.0090947 0)
(1.16922 0.0075399 0)
(0.876964 0.0084122 0)
(1.15142 0.00784688 0)
(0.849918 -0.00310108 0)
(1.15869 0.00497958 0)
(0.879094 -0.0100311 0)
(1.13785 0.00412089 0)
(0.917052 -0.00715509 0)
(1.13856 0.00652558 0)
(0.909569 0.00331125 0)
(1.09853 0.000902513 0)
(0.939886 -0.00411073 0)
(1.0903 -0.00566374 0)
(0.963754 -0.00288972 0)
(1.1082 -0.0115832 0)
(0.96283 0.00131001 0)
(1.11979 -0.00636152 0)
(0.958494 0.00528419 0)
(1.11637 0.00112092 0)
(0.955543 0.00925903 0)
(1.09009 0.00736602 0)
(0.980576 0.0102882 0)
(1.03192 0.00621479 0)
(0.872996 -0.00323638 0)
(1.13546 0.00491859 0)
(0.904861 -0.0100172 0)
(1.11781 0.00389485 0)
(0.946474 -0.00727315 0)
(1.11679 0.00675571 0)
(0.951181 0.00361484 0)
(1.07353 0.000737851 0)
(0.97352 -0.00412831 0)
(1.05962 -0.00588282 0)
(0.994428 -0.00327264 0)
(1.07113 -0.0114848 0)
(0.999322 0.000931018 0)
(1.08022 -0.0061973 0)
(1.00587 0.00522912 0)
(1.07255 0.00107343 0)
(1.01056 0.00953603 0)
(1.04851 0.0071814 0)
(1.02451 0.0110516 0)
(1.02066 0.00693117 0)
(0.901891 -0.00333903 0)
(1.10521 0.00480496 0)
(0.93087 -0.00999179 0)
(1.09047 0.00361006 0)
(0.973131 -0.00730894 0)
(1.08868 0.00675575 0)
(0.988264 0.00397758 0)
(1.04935 0.000638572 0)
(0.99732 -0.00400709 0)
(1.03243 -0.006085 0)
(1.01252 -0.00346328 0)
(1.03994 -0.0115452 0)
(1.021 0.000683903 0)
(1.05388 -0.00632261 0)
(1.0321 0.0053418 0)
(1.05421 0.000941769 0)
(1.03551 0.0100152 0)
(1.04379 0.00709474 0)
(1.03767 0.0113347 0)
(1.03254 0.0080902 0)
(0.931328 -0.00341264 0)
(1.07388 0.00467799 0)
(0.95234 -0.00994307 0)
(1.06193 0.00328028 0)
(0.990822 -0.00731341 0)
(1.06132 0.00657778 0)
(1.01123 0.00432704 0)
(1.03175 0.00066216 0)
(1.00771 -0.00381498 0)
(1.01447 -0.00622812 0)
(1.01642 -0.00358361 0)
(1.01892 -0.0116606 0)
(1.02566 0.000313846 0)
(1.03785 -0.00650005 0)
(1.03903 0.00521821 0)
(1.04705 0.000873738 0)
(1.04344 0.0101872 0)
(1.04619 0.00708932 0)
(1.04329 0.0116033 0)
(1.03886 0.00907076 0)
(0.956674 -0.00345983 0)
(1.04687 0.00458342 0)
(0.967483 -0.00988194 0)
(1.03763 0.0029447 0)
(0.999009 -0.00730968 0)
(1.03924 0.00632803 0)
(1.02027 0.00459888 0)
(1.02102 0.000791504 0)
(1.00936 -0.00359566 0)
(1.00463 -0.00630542 0)
(1.01292 -0.00364186 0)
(1.00594 -0.0117931 0)
(1.02088 -0.000150569 0)
(1.0261 -0.00673374 0)
(1.03575 0.00484354 0)
(1.04059 0.000787431 0)
(1.04333 0.00998005 0)
(1.04556 0.00723938 0)
(1.04432 0.0116951 0)
(1.03985 0.00993453 0)
(0.975336 -0.00348514 0)
(1.02713 0.0045393 0)
(0.977216 -0.0098152 0)
(1.02013 0.00264615 0)
(1.0007 -0.00730139 0)
(1.02336 0.00605938 0)
(1.02033 0.00477181 0)
(1.01481 0.000972031 0)
(1.00778 -0.00337001 0)
(0.99993 -0.00632493 0)
(1.00804 -0.00364028 0)
(0.998326 -0.0119029 0)
(1.01335 -0.000617928 0)
(1.01629 -0.00701602 0)
(1.02837 0.00437103 0)
(1.03268 0.00060275 0)
(1.03862 0.00959748 0)
(1.04129 0.00745193 0)
(1.04107 0.0115882 0)
(1.03698 0.0108165 0)
(0.987118 -0.00349511 0)
(1.01473 0.00453698 0)
(0.983561 -0.00974087 0)
(1.00913 0.00240243 0)
(0.999486 -0.00728292 0)
(1.01248 0.00579444 0)
(1.01637 0.00485803 0)
(1.01091 0.00114446 0)
(1.0059 -0.00315549 0)
(0.998098 -0.00630545 0)
(1.00441 -0.00359141 0)
(0.994341 -0.0119532 0)
(1.00645 -0.00103785 0)
(1.00818 -0.00727583 0)
(1.01991 0.00385178 0)
(1.02391 0.000374521 0)
(1.03107 0.00912516 0)
(1.03424 0.00765385 0)
(1.03456 0.0113937 0)
(1.03116 0.0117242 0)
(0.993484 -0.00349424 0)
(1.00791 0.00455235 0)
(0.988171 -0.00965494 0)
(1.00281 0.00221215 0)
(0.99772 -0.00724251 0)
(1.00504 0.00554493 0)
(1.01146 0.00487794 0)
(1.00816 0.00127099 0)
(1.00451 -0.00296513 0)
(0.997717 -0.00626651 0)
(1.00234 -0.00350973 0)
(0.992778 -0.0119276 0)
(1.00117 -0.00138856 0)
(1.00187 -0.00746294 0)
(1.01167 0.00331811 0)
(1.0151 0.000188504 0)
(1.02198 0.00856749 0)
(1.02543 0.00786397 0)
(1.02606 0.0111596 0)
(1.02343 0.0125693 0)
(0.996419 -0.00348401 0)
(1.00451 0.00455985 0)
(0.991812 -0.00955428 0)
(0.99928 0.00206788 0)
(0.996378 -0.00717153 0)
(0.999928 0.00531578 0)
(1.00698 0.00484957 0)
(1.00608 0.00133836 0)
(1.00354 -0.0028039 0)
(0.99791 -0.00622135 0)
(1.0013 -0.00341313 0)
(0.992694 -0.0118268 0)
(0.997419 -0.00165017 0)
(0.997287 -0.00754836 0)
(1.0043 0.00282125 0)
(1.00693 9.20039e-05 0)
(1.01254 0.00795948 0)
(1.01596 0.00810426 0)
(1.0168 0.0108895 0)
(1.01495 0.0132759 0)
(0.997586 -0.00346481 0)
(1.00288 0.00454383 0)
(0.994637 -0.00943672 0)
(0.997215 0.00195942 0)
(0.9956 -0.00706876 0)
(0.996475 0.00510712 0)
(1.00344 0.00478833 0)
(1.00452 0.00134895 0)
(1.00282 -0.0026691 0)
(0.99819 -0.00617726 0)
(1.00068 -0.00331734 0)
(0.993331 -0.0116587 0)
(0.994829 -0.00183198 0)
(0.994234 -0.00751489 0)
(0.998212 0.00238726 0)
(1 0.000110496 0)
(1.00388 0.00735305 0)
(1.00697 0.00837357 0)
(1.00804 0.0105986 0)
(1.00687 0.0138021 0)
(0.998016 -0.00343734 0)
(1.00205 0.00450095 0)
(0.996632 -0.00930112 0)
(0.995904 0.00187487 0)
(0.995237 -0.00693782 0)
(0.994272 0.00491539 0)
(1.00091 0.00470691 0)
(1.00341 0.00131287 0)
(1.00226 -0.00255378 0)
(0.998361 -0.00613543 0)
(1.00016 -0.00323248 0)
(0.994124 -0.0114354 0)
(0.99307 -0.00195443 0)
(0.992377 -0.00736246 0)
(0.99366 0.00201698 0)
(0.994683 0.000250353 0)
(0.996888 0.00678733 0)
(0.999449 0.00865971 0)
(1.00078 0.0103146 0)
(1.00017 0.0141273 0)
(0.998198 -0.00340244 0)
(1.00158 0.00443445 0)
(0.997871 -0.00914778 0)
(0.995036 0.00180271 0)
(0.99512 -0.00678395 0)
(0.993017 0.00473368 0)
(0.999289 0.00461554 0)
(1.00269 0.00124102 0)
(1.00182 -0.00244897 0)
(0.998403 -0.00609217 0)
(0.999643 -0.00316296 0)
(0.994748 -0.0111712 0)
(0.991911 -0.00203566 0)
(0.991347 -0.007109 0)
(0.990652 0.00169704 0)
(0.991062 0.000501546 0)
(0.992005 0.00627416 0)
(0.993971 0.00893715 0)
(0.995564 0.010078 0)
(0.995364 0.0142544 0)
(0.998306 -0.00336101 0)
(1.00129 0.00434946 0)
(0.998533 -0.00897729 0)
(0.994476 0.00173361 0)
(0.99513 -0.00661225 0)
(0.992442 0.00455388 0)
(0.998388 0.0045218 0)
(1.00227 0.00114322 0)
(1.0015 -0.00234578 0)
(0.998366 -0.00604366 0)
(0.999149 -0.00310815 0)
(0.995098 -0.0108747 0)
(0.991189 -0.00210164 0)
(0.990818 -0.0067779 0)
(0.988948 0.0014073 0)
(0.988918 0.000838632 0)
(0.989128 0.00581733 0)
(0.990562 0.00917527 0)
(0.992388 0.00991975 0)
(0.992493 0.0141999 0)
(0.998385 -0.00331387 0)
(1.00111 0.00425044 0)
(0.998827 -0.00879036 0)
(0.994145 0.00166123 0)
(0.995197 -0.00642658 0)
(0.992307 0.00436884 0)
(0.997968 0.00443097 0)
(1.00206 0.00102759 0)
(1.00128 -0.00223871 0)
(0.998302 -0.00598848 0)
(0.998724 -0.00306179 0)
(0.99522 -0.0105514 0)
(0.990778 -0.00217321 0)
(0.990565 -0.00638995 0)
(0.988174 0.0011307 0)
(0.987863 0.00122441 0)
(0.987795 0.00542034 0)
(0.988842 0.00935037 0)
(0.990843 0.00985159 0)
(0.99119 0.0139938 0)
(0.998443 -0.00326138 0)
(1.00099 0.0041399 0)
(0.998924 -0.00858773 0)
(0.993973 0.00158139 0)
(0.995283 -0.0062284 0)
(0.992415 0.00417283 0)
(0.997822 0.00434643 0)
(1.00195 0.000899938 0)
(1.00112 -0.00212652 0)
(0.998245 -0.00592405 0)
(0.998392 -0.00302037 0)
(0.995213 -0.0102041 0)
(0.990579 -0.00225815 0)
(0.99046 -0.00596383 0)
(0.98797 0.000856182 0)
(0.987492 0.00162179 0)
(0.987442 0.00508556 0)
(0.988256 0.00944681 0)
(0.990366 0.00986923 0)
(0.990925 0.0136812 0)
(0.998487 -0.00320358 0)
(1.00091 0.00401869 0)
(0.998936 -0.00836965 0)
(0.993905 0.00149155 0)
(0.99537 -0.0060181 0)
(0.992632 0.00396293 0)
(0.997798 0.00426942 0)
(1.00189 0.000763106 0)
(1.001 -0.00200838 0)
(0.998208 -0.00584754 0)
(0.998146 -0.00298875 0)
(0.995166 -0.00982763 0)
(0.990524 -0.00236336 0)
(0.990443 -0.00551006 0)
(0.988066 0.000581995 0)
(0.98749 0.0020048 0)
(0.987603 0.0048204 0)
(0.9883 0.0094547 0)
(0.990454 0.00994955 0)
(0.991211 0.0133098 0)
(0.998522 -0.00314038 0)
(1.00084 0.00388685 0)
(0.998921 -0.00813669 0)
(0.993895 0.00139115 0)
(0.995455 -0.00579593 0)
(0.992882 0.00373817 0)
(0.997807 0.00420018 0)
(1.00183 0.000620253 0)
(1.00089 -0.00188558 0)
(0.998191 -0.0057584 0)
(0.99797 -0.00296913 0)
(0.99513 -0.00942197 0)
(0.990568 -0.00248718 0)
(0.990483 -0.00503973 0)
(0.988306 0.000317261 0)
(0.987658 0.00235123 0)
(0.987973 0.00462868 0)
(0.988624 0.00937363 0)
(0.990765 0.0100611 0)
(0.991708 0.01292 0)
(0.998553 -0.00307151 0)
(1.00077 0.0037439 0)
(0.998903 -0.00788938 0)
(0.993918 0.00128017 0)
(0.995537 -0.00556164 0)
(0.993131 0.00349898 0)
(0.99781 0.00413778 0)
(1.00175 0.000473839 0)
(1.00078 -0.0017632 0)
(0.998187 -0.00565405 0)
(0.997841 -0.00296046 0)
(0.995122 -0.00899714 0)
(0.990678 -0.00261917 0)
(0.990567 -0.00456978 0)
(0.988608 7.19098e-05 0)
(0.987892 0.00264099 0)
(0.988397 0.0045098 0)
(0.989038 0.00921585 0)
(0.991117 0.0101738 0)
(0.99223 0.0125445 0)
(0.998584 -0.00299675 0)
(1.00071 0.00358931 0)
(0.99889 -0.00762765 0)
(0.993958 0.00115846 0)
(0.995616 -0.0053146 0)
(0.993372 0.00324604 0)
(0.997796 0.00408235 0)
(1.00166 0.000322536 0)
(1.00066 -0.00164525 0)
(0.998189 -0.0055309 0)
(0.997745 -0.00296739 0)
(0.995141 -0.0085513 0)
(0.990837 -0.00276055 0)
(0.990682 -0.00410623 0)
(0.988942 -0.000134767 0)
(0.988153 0.00287127 0)
(0.988811 0.00446235 0)
(0.989465 0.00900116 0)
(0.991443 0.0102635 0)
(0.992702 0.0122079 0)
(0.998615 -0.00291595 0)
(1.00064 0.00342334 0)
(0.998881 -0.00735213 0)
(0.994008 0.00102661 0)
(0.995694 -0.00505559 0)
(0.993607 0.0029812 0)
(0.997766 0.00403221 0)
(1.00156 0.000168944 0)
(1.00054 -0.0015369 0)
(0.998193 -0.00538503 0)
(0.997671 -0.00299286 0)
(0.995177 -0.00808416 0)
(0.991027 -0.00290316 0)
(0.99082 -0.00365653 0)
(0.989291 -0.000300348 0)
(0.988429 0.00304473 0)
(0.989202 0.00447543 0)
(0.989885 0.00874879 0)
(0.991734 0.010313 0)
(0.993111 0.0119191 0)
(0.998647 -0.00282908 0)
(1.00057 0.00324568 0)
(0.998875 -0.0070628 0)
(0.994065 0.000885194 0)
(0.99577 -0.00478553 0)
(0.993838 0.00270658 0)
(0.997727 0.00398421 0)
(1.00144 1.80187e-05 0)
(1.00042 -0.00144262 0)
(0.998194 -0.00521627 0)
(0.997614 -0.0030323 0)
(0.995223 -0.00760744 0)
(0.99124 -0.00303174 0)
(0.990974 -0.00323735 0)
(0.98965 -0.000423253 0)
(0.988723 0.0031675 0)
(0.989572 0.004533 0)
(0.9903 0.00847487 0)
(0.992005 0.0103101 0)
(0.993464 0.0116715 0)
(0.99868 -0.00273587 0)
(1.00051 0.0030561 0)
(0.99887 -0.00676079 0)
(0.994128 0.000735659 0)
(0.995846 -0.00450576 0)
(0.99407 0.00242523 0)
(0.997684 0.00393471 0)
(1.00133 -0.000123537 0)
(1.0003 -0.00136538 0)
(0.998191 -0.0050276 0)
(0.997569 -0.0030814 0)
(0.995274 -0.00713046 0)
(0.991468 -0.00314004 0)
(0.991142 -0.00285433 0)
(0.990014 -0.00049329 0)
(0.989039 0.00324339 0)
(0.989927 0.00462182 0)
(0.990714 0.00819562 0)
(0.992273 0.0102508 0)
(0.993775 0.0114541 0)
(0.998713 -0.00263652 0)
(1.00045 0.00285577 0)
(0.998867 -0.0064473 0)
(0.994197 0.000579004 0)
(0.995922 -0.00421837 0)
(0.994303 0.00213996 0)
(0.99764 0.00388194 0)
(1.0012 -0.00025227 0)
(1.00018 -0.00130947 0)
(0.998183 -0.00481558 0)
(0.997536 -0.00313585 0)
(0.995328 -0.00666192 0)
(0.991705 -0.00321852 0)
(0.991322 -0.00250637 0)
(0.990382 -0.000511663 0)
(0.989376 0.00327351 0)
(0.990273 0.00473288 0)
(0.991129 0.00792577 0)
(0.992549 0.0101356 0)
(0.994057 0.0112554 0)
(0.998747 -0.00253119 0)
(1.00039 0.00264524 0)
(0.998865 -0.00612287 0)
(0.994271 0.000418112 0)
(0.995998 -0.00392652 0)
(0.994539 0.00185466 0)
(0.997598 0.00381994 0)
(1.00108 -0.000364954 0)
(1.00007 -0.00127379 0)
(0.99817 -0.00458512 0)
(0.997513 -0.00318885 0)
(0.995385 -0.00620745 0)
(0.991949 -0.00325928 0)
(0.991512 -0.00219275 0)
(0.990749 -0.000476719 0)
(0.989737 0.00326587 0)
(0.990614 0.00485416 0)
(0.991544 0.00767451 0)
(0.99284 0.00996364 0)
(0.994318 0.0110622 0)
(0.998781 -0.00241959 0)
(1.00034 0.00242425 0)
(0.998863 -0.00579031 0)
(0.994351 0.000255187 0)
(0.996075 -0.00363211 0)
(0.994777 0.0015723 0)
(0.997558 0.00374585 0)
(1.00095 -0.000457545 0)
(0.999965 -0.00125843 0)
(0.998151 -0.0043431 0)
(0.997498 -0.00323388 0)
(0.995446 -0.00577336 0)
(0.992199 -0.00326464 0)
(0.991716 -0.0019171 0)
(0.991115 -0.000394621 0)
(0.990119 0.0032281 0)
(0.990954 0.00496661 0)
(0.991954 0.00745252 0)
(0.993148 0.00974252 0)
(0.994566 0.0108635 0)
(0.998816 -0.00230261 0)
(1.00029 0.002195 0)
(0.998863 -0.00545195 0)
(0.994436 9.29303e-05 0)
(0.996153 -0.0033383 0)
(0.995018 0.00129723 0)
(0.997523 0.00365699 0)
(1.00083 -0.000529212 0)
(0.999866 -0.00126344 0)
(0.998128 -0.00409125 0)
(0.997491 -0.00326839 0)
(0.995511 -0.00536465 0)
(0.992453 -0.00323764 0)
(0.991933 -0.00167597 0)
(0.991478 -0.000273283 0)
(0.990519 0.0031764 0)
(0.991298 0.00505264 0)
(0.992356 0.00726323 0)
(0.993471 0.00948785 0)
(0.994806 0.0106542 0)
(0.998851 -0.00218066 0)
(1.00024 0.00195989 0)
(0.998864 -0.00511102 0)
(0.994526 -6.26353e-05 0)
(0.996234 -0.00305003 0)
(0.995261 0.0010375 0)
(0.997494 0.00354622 0)
(1.0007 -0.000577865 0)
(0.999776 -0.00128528 0)
(0.998101 -0.00383786 0)
(0.997491 -0.00328811 0)
(0.995581 -0.00497434 0)
(0.992711 -0.00317374 0)
(0.992166 -0.00146089 0)
(0.99184 -0.000123177 0)
(0.990935 0.00312529 0)
(0.991647 0.00510456 0)
(0.992749 0.00709663 0)
(0.993805 0.00921053 0)
(0.995041 0.0104326 0)
(0.998888 -0.00205342 0)
(1.0002 0.00171863 0)
(0.998867 -0.00477177 0)
(0.99462 -0.000210852 0)
(0.996316 -0.0027727 0)
(0.995505 0.000796025 0)
(0.997472 0.00341541 0)
(1.00056 -0.000607873 0)
(0.999694 -0.00131979 0)
(0.998071 -0.00358635 0)
(0.997496 -0.0032865 0)
(0.995658 -0.00460567 0)
(0.992971 -0.00307229 0)
(0.992414 -0.00126623 0)
(0.9922 4.6988e-05 0)
(0.991362 0.00307865 0)
(0.992002 0.00512352 0)
(0.993133 0.00694182 0)
(0.99415 0.00891549 0)
(0.995274 0.0101968 0)
(0.998925 -0.00192182 0)
(1.00017 0.00147198 0)
(0.998873 -0.00443839 0)
(0.994718 -0.000347415 0)
(0.996399 -0.00250808 0)
(0.995749 0.000574343 0)
(0.997457 0.00326569 0)
(1.00043 -0.000617609 0)
(0.99962 -0.00136375 0)
(0.99804 -0.00333658 0)
(0.997507 -0.00326749 0)
(0.995741 -0.00426068 0)
(0.993233 -0.00293645 0)
(0.992677 -0.00109109 0)
(0.99256 0.000230313 0)
(0.991796 0.00303825 0)
(0.992365 0.00510984 0)
(0.993506 0.00679435 0)
(0.994503 0.00861177 0)
(0.995512 0.00993897 0)
(0.998962 -0.00178773 0)
(1.00014 0.00122656 0)
(0.998883 -0.0041157 0)
(0.99482 -0.00046265 0)
(0.996484 -0.00226108 0)
(0.995993 0.000378573 0)
(0.997451 0.00309337 0)
(1.00029 -0.000610333 0)
(0.999556 -0.00141326 0)
(0.998009 -0.00309497 0)
(0.997521 -0.00322962 0)
(0.995834 -0.00393807 0)
(0.993494 -0.00276049 0)
(0.992955 -0.000933655 0)
(0.992921 0.000414563 0)
(0.992233 0.00301087 0)
(0.992736 0.00506583 0)
(0.99387 0.00664733 0)
(0.994859 0.00831079 0)
(0.995761 0.00964999 0)
(0.999 -0.00165085 0)
(1.00012 0.000982238 0)
(0.998899 -0.00380811 0)
(0.994926 -0.000555784 0)
(0.99657 -0.00203639 0)
(0.996235 0.000208118 0)
(0.997453 0.00290234 0)
(1.00016 -0.00059511 0)
(0.999501 -0.00146002 0)
(0.997981 -0.00286344 0)
(0.997539 -0.00316421 0)
(0.995937 -0.00364333 0)
(0.993756 -0.0025509 0)
(0.993243 -0.000787853 0)
(0.993284 0.00058387 0)
(0.992671 0.00299983 0)
(0.993111 0.00500221 0)
(0.994227 0.00649203 0)
(0.995216 0.00801895 0)
(0.996025 0.0093346 0)
(0.999038 -0.00151176 0)
(1.00011 0.000740911 0)
(0.998921 -0.00351977 0)
(0.995037 -0.000624729 0)
(0.996657 -0.00183122 0)
(0.996474 5.78409e-05 0)
(0.997464 0.00270262 0)
(1.00002 -0.00057199 0)
(0.999454 -0.00150317 0)
(0.997956 -0.00264413 0)
(0.997559 -0.00307522 0)
(0.996052 -0.00336624 0)
(0.994018 -0.00231723 0)
(0.993539 -0.000644136 0)
(0.99365 0.000731508 0)
(0.993108 0.00299774 0)
(0.993488 0.00492922 0)
(0.994576 0.00632431 0)
(0.99557 0.00773293 0)
(0.996302 0.00900281 0)
(0.999077 -0.00137369 0)
(1.0001 0.000510171 0)
(0.998951 -0.00325299 0)
(0.995152 -0.0006645 0)
(0.996745 -0.00164911 0)
(0.99671 -7.09644e-05 0)
(0.997484 0.00249747 0)
(0.999886 -0.000547311 0)
(0.999415 -0.00153853 0)
(0.997938 -0.00243845 0)
(0.997584 -0.00296337 0)
(0.996179 -0.0031015 0)
(0.99428 -0.00207213 0)
(0.993838 -0.000500081 0)
(0.994019 0.000858362 0)
(0.993545 0.00299592 0)
(0.993864 0.00485252 0)
(0.994917 0.00614504 0)
(0.995921 0.00744372 0)
(0.996593 0.00865957 0)
(0.999116 -0.00123579 0)
(1.0001 0.000287417 0)
(0.998989 -0.00301017 0)
(0.995271 -0.0006786 0)
(0.996834 -0.00149042 0)
(0.996941 -0.000179111 0)
(0.997512 0.00229194 0)
(0.999751 -0.00052102 0)
(0.999384 -0.00156746 0)
(0.997926 -0.00224017 0)
(0.997611 -0.00282746 0)
(0.996318 -0.00285661 0)
(0.994544 -0.00181606 0)
(0.994138 -0.000358803 0)
(0.994389 0.000954716 0)
(0.993982 0.00298401 0)
(0.994236 0.00478414 0)
(0.995248 0.00597099 0)
(0.996266 0.00715062 0)
(0.996895 0.00830877 0)
(0.999156 -0.00110012 0)
(1.00011 7.75731e-05 0)
(0.999037 -0.00279172 0)
(0.995394 -0.00067158 0)
(0.996924 -0.00134945 0)
(0.99717 -0.00027139 0)
(0.997548 0.00209174 0)
(0.999617 -0.000494318 0)
(0.999359 -0.00158544 0)
(0.997923 -0.00204917 0)
(0.997642 -0.00267306 0)
(0.996469 -0.00263122 0)
(0.99481 -0.00155344 0)
(0.994434 -0.000210841 0)
(0.994759 0.00102383 0)
(0.994423 0.00295076 0)
(0.994608 0.00472143 0)
(0.995564 0.00581594 0)
(0.996601 0.00685419 0)
(0.997206 0.00794717 0)
(0.999196 -0.000969416 0)
(1.00012 -0.000112766 0)
(0.999096 -0.00259685 0)
(0.995521 -0.0006459 0)
(0.997014 -0.001224 0)
(0.997395 -0.000354015 0)
(0.997594 0.00190221 0)
(0.999485 -0.000473505 0)
(0.999341 -0.00158932 0)
(0.997929 -0.00186505 0)
(0.997673 -0.00250405 0)
(0.996633 -0.00242325 0)
(0.99508 -0.00130141 0)
(0.994723 -5.0588e-05 0)
(0.995124 0.00108237 0)
(0.99487 0.00289209 0)
(0.994984 0.0046469 0)
(0.995862 0.00568674 0)
(0.996919 0.00656958 0)
(0.997523 0.00757438 0)
(0.999236 -0.00084205 0)
(1.00013 -0.000284249 0)
(0.999165 -0.00242715 0)
(0.995652 -0.000605414 0)
(0.997102 -0.00111014 0)
(0.997617 -0.000429436 0)
(0.997649 0.00172516 0)
(0.999356 -0.000453181 0)
(0.999331 -0.00158836 0)
(0.997945 -0.00168209 0)
(0.997706 -0.00231219 0)
(0.996807 -0.00223688 0)
(0.995357 -0.00106765 0)
(0.995005 0.00013277 0)
(0.995479 0.00114644 0)
(0.99532 0.00280851 0)
(0.99537 0.00454134 0)
(0.996147 0.00557755 0)
(0.997212 0.00632304 0)
(0.997837 0.00720629 0)
(0.999277 -0.000722402 0)
(1.00015 -0.000432045 0)
(0.999246 -0.00228207 0)
(0.995788 -0.000552223 0)
(0.997189 -0.00100461 0)
(0.997835 -0.000500759 0)
(0.997713 0.00156212 0)
(0.999231 -0.000423269 0)
(0.99933 -0.00158542 0)
(0.997973 -0.00149871 0)
(0.997737 -0.00209338 0)
(0.996989 -0.00207172 0)
(0.995646 -0.000862746 0)
(0.995282 0.000334493 0)
(0.995816 0.00122374 0)
(0.995766 0.00271152 0)
(0.995771 0.00440274 0)
(0.996429 0.00546526 0)
(0.997477 0.0061177 0)
(0.998139 0.00685639 0)
(0.999318 -0.000610446 0)
(1.00017 -0.000554047 0)
(0.999339 -0.0021635 0)
(0.99593 -0.000489856 0)
(0.997273 -0.000904572 0)
(0.99805 -0.000572843 0)
(0.997787 0.00141856 0)
(0.999109 -0.000381613 0)
(0.999337 -0.00158125 0)
(0.998016 -0.00132297 0)
(0.997765 -0.0018495 0)
(0.997173 -0.0019232 0)
(0.995951 -0.000692797 0)
(0.995559 0.00053551 0)
(0.99613 0.00131815 0)
(0.996202 0.00261048 0)
(0.996187 0.00423481 0)
(0.996716 0.0053314 0)
(0.997716 0.00594356 0)
(0.998417 0.00653879 0)
(0.999361 -0.00050833 0)
(1.00019 -0.000644838 0)
(0.999442 -0.00207307 0)
(0.996079 -0.000421176 0)
(0.997353 -0.000807815 0)
(0.998262 -0.00064591 0)
(0.997873 0.00128745 0)
(0.99899 -0.000322507 0)
(0.999352 -0.00158129 0)
(0.998079 -0.00116526 0)
(0.997788 -0.00157248 0)
(0.997353 -0.00177248 0)
(0.996274 -0.000573946 0)
(0.99584 0.000717389 0)
(0.99642 0.0014421 0)
(0.996618 0.00252358 0)
(0.996615 0.00403957 0)
(0.997019 0.0051691 0)
(0.997939 0.00578358 0)
(0.998664 0.00626794 0)
(0.999404 -0.000418845 0)
(1.00021 -0.000701205 0)
(0.999556 -0.00201193 0)
(0.996235 -0.000349547 0)
(0.997428 -0.000711169 0)
(0.99847 -0.000720737 0)
(0.997973 0.00116571 0)
(0.998873 -0.000238534 0)
(0.999373 -0.00158091 0)
(0.998168 -0.00104097 0)
(0.99781 -0.00127355 0)
(0.99752 -0.00159363 0)
(0.996611 -0.000502416 0)
(0.996139 0.000859687 0)
(0.996692 0.00159008 0)
(0.997005 0.00247307 0)
(0.997046 0.00383017 0)
(0.997341 0.00497528 0)
(0.998158 0.00561281 0)
(0.998876 0.00604096 0)
(0.999447 -0.000341698 0)
(1.00022 -0.000722586 0)
(0.999678 -0.001978 0)
(0.996401 -0.000279352 0)
(0.997497 -0.000606849 0)
(0.998673 -0.000803997 0)
(0.998088 0.00104961 0)
(0.998758 -0.000125507 0)
(0.999395 -0.00157125 0)
(0.998283 -0.00095566 0)
(0.997839 -0.000966277 0)
(0.997665 -0.00137956 0)
(0.996953 -0.000460165 0)
(0.996461 0.000952332 0)
(0.996952 0.00173723 0)
(0.997354 0.00246302 0)
(0.997468 0.00362441 0)
(0.997682 0.00475065 0)
(0.998386 0.00541736 0)
(0.999065 0.00583401 0)
(0.999492 -0.00027755 0)
(1.00023 -0.000709451 0)
(0.999807 -0.00196715 0)
(0.996576 -0.000215283 0)
(0.997559 -0.00048877 0)
(0.998871 -0.00089441 0)
(0.998223 0.000926487 0)
(0.998645 2.3378e-05 0)
(0.999412 -0.00153988 0)
(0.99843 -0.000918437 0)
(0.99788 -0.000666598 0)
(0.997784 -0.00111961 0)
(0.99729 -0.000427214 0)
(0.99681 0.000981278 0)
(0.997215 0.00185668 0)
(0.997667 0.00249245 0)
(0.997869 0.0034487 0)
(0.998037 0.00450827 0)
(0.998629 0.00520229 0)
(0.999246 0.00562164 0)
(0.999537 -0.000228202 0)
(1.00024 -0.000661633 0)
(0.999939 -0.00197323 0)
(0.996765 -0.000165785 0)
(0.997611 -0.000351886 0)
(0.999059 -0.000982217 0)
(0.998383 0.000781605 0)
(0.998537 0.000195415 0)
(0.999414 -0.00146298 0)
(0.998605 -0.000926256 0)
(0.997949 -0.000407979 0)
(0.997875 -0.000817916 0)
(0.997604 -0.00037419 0)
(0.997182 0.000951318 0)
(0.997494 0.00192838 0)
(0.997951 0.0025414 0)
(0.998237 0.00331767 0)
(0.998396 0.00426394 0)
(0.998889 0.00497251 0)
(0.99943 0.00539724 0)
(0.999583 -0.000194087 0)
(1.00023 -0.000585817 0)
(1.00007 -0.00198015 0)
(0.996967 -0.000141305 0)
(0.997653 -0.000191304 0)
(0.999232 -0.00105957 0)
(0.998568 0.000610427 0)
(0.998442 0.000377959 0)
(0.999395 -0.00132778 0)
(0.998801 -0.000970174 0)
(0.998055 -0.000203753 0)
(0.997948 -0.000491426 0)
(0.997884 -0.00028412 0)
(0.997567 0.000891179 0)
(0.9978 0.0019481 0)
(0.99822 0.00258349 0)
(0.998568 0.00322821 0)
(0.998747 0.00403365 0)
(0.999164 0.00472539 0)
(0.999623 0.00516173 0)
(0.999628 -0.00017301 0)
(1.00022 -0.000489975 0)
(1.0002 -0.00198383 0)
(0.997184 -0.00014935 0)
(0.997686 -1.22684e-05 0)
(0.999383 -0.00110857 0)
(0.998782 0.000403167 0)
(0.998369 0.00056216 0)
(0.999346 -0.00111431 0)
(0.999005 -0.00102964 0)
(0.998208 -7.04497e-05 0)
(0.998012 -0.000168218 0)
(0.99812 -0.000141083 0)
(0.997953 0.000828337 0)
(0.998135 0.00191077 0)
(0.998489 0.00260098 0)
(0.998865 0.00316679 0)
(0.999076 0.00383391 0)
(0.999447 0.00447105 0)
(0.999827 0.00492082 0)
(0.999673 -0.000164922 0)
(1.0002 -0.000381631 0)
(1.00032 -0.00197047 0)
(0.997418 -0.000196152 0)
(0.997714 0.000176701 0)
(0.999504 -0.00111197 0)
(0.999021 0.00016445 0)
(0.998333 0.000717821 0)
(0.999266 -0.000823331 0)
(0.9992 -0.00105044 0)
(0.998408 -2.3974e-05 0)
(0.998084 0.000138576 0)
(0.998312 6.66975e-05 0)
(0.998318 0.000792775 0)
(0.998495 0.00182613 0)
(0.998771 0.00258257 0)
(0.999138 0.00311672 0)
(0.999376 0.00366797 0)
(0.999729 0.00422166 0)
(1.00004 0.00467499 0)
(0.999717 -0.000166867 0)
(1.00017 -0.000269592 0)
(1.00043 -0.00193023 0)
(0.997669 -0.000280849 0)
(0.997742 0.000364729 0)
(0.999589 -0.00105442 0)
(0.99928 -9.32973e-05 0)
(0.998344 0.000817289 0)
(0.999162 -0.000492288 0)
(0.999364 -0.00100867 0)
(0.998653 -4.40632e-05 0)
(0.998187 0.00039499 0)
(0.998461 0.000311712 0)
(0.998643 0.00080198 0)
(0.998866 0.00172152 0)
(0.999074 0.00251797 0)
(0.999399 0.00306003 0)
(0.999645 0.00353276 0)
(1 0.00398775 0)
(1.00027 0.00441673 0)
(0.999759 -0.000176924 0)
(1.00013 -0.000157594 0)
(1.00051 -0.00186264 0)
(0.997934 -0.000394877 0)
(0.997778 0.000527558 0)
(0.999631 -0.00092028 0)
(0.999545 -0.00036145 0)
(0.998413 0.000828207 0)
(0.999047 -0.000154403 0)
(0.999485 -0.000883231 0)
(0.998924 -9.88693e-05 0)
(0.998332 0.000554115 0)
(0.998585 0.000555298 0)
(0.998921 0.000861993 0)
(0.999231 0.00162862 0)
(0.999399 0.0024165 0)
(0.999664 0.00298151 0)
(0.999889 0.00342252 0)
(1.00025 0.0037895 0)
(1.0005 0.00414921 0)
(0.9998 -0.000191609 0)
(1.00008 -5.55811e-05 0)
(1.00058 -0.00176297 0)
(0.998208 -0.000525011 0)
(0.997831 0.000644453 0)
(0.999628 -0.000716223 0)
(0.999797 -0.000590761 0)
(0.998542 0.000741506 0)
(0.998944 0.000174551 0)
(0.999555 -0.000670365 0)
(0.999196 -0.000146541 0)
(0.998523 0.000628453 0)
(0.998705 0.00077374 0)
(0.999152 0.000962154 0)
(0.999573 0.00156301 0)
(0.999734 0.00230413 0)
(0.999942 0.00287773 0)
(1.00012 0.00331126 0)
(1.00046 0.00363256 0)
(1.00073 0.00389766 0)
(0.999839 -0.000207507 0)
(1.00004 3.13305e-05 0)
(1.00062 -0.00163104 0)
(0.998485 -0.000661611 0)
(0.997909 0.000702295 0)
(0.999588 -0.000474942 0)
(1.00002 -0.000742395 0)
(0.99873 0.00057691 0)
(0.998872 0.000462701 0)
(0.999573 -0.000395913 0)
(0.999447 -0.000148892 0)
(0.998755 0.000642645 0)
(0.998836 0.000943909 0)
(0.999342 0.00107806 0)
(0.999882 0.00151872 0)
(1.00007 0.00218938 0)
(1.00023 0.00275984 0)
(1.00036 0.00318114 0)
(1.00065 0.00349608 0)
(1.00092 0.00369396 0)
(0.999874 -0.000221633 0)
(0.999988 0.00010088 0)
(1.00063 -0.00146658 0)
(0.998757 -0.000794635 0)
(0.998016 0.000702321 0)
(0.99952 -0.000225291 0)
(1.00019 -0.00079425 0)
(0.998964 0.000359498 0)
(0.998851 0.000663607 0)
(0.999552 -0.000101519 0)
(0.999657 -9.37217e-05 0)
(0.999011 0.000631849 0)
(0.99899 0.00105536 0)
(0.9995 0.00119726 0)
(1.00015 0.00150145 0)
(1.0004 0.00207307 0)
(1.00052 0.00263713 0)
(1.0006 0.00304243 0)
(1.00083 0.00335015 0)
(1.00108 0.00353212 0)
(0.999907 -0.000230742 0)
(0.999942 0.000148127 0)
(1.00062 -0.00127551 0)
(0.999015 -0.000908461 0)
(0.998155 0.000649101 0)
(0.999442 1.22089e-05 0)
(1.00031 -0.000740475 0)
(0.999221 0.000143786 0)
(0.998889 0.000740656 0)
(0.99951 0.000197296 0)
(0.999822 3.75999e-05 0)
(0.999273 0.000635774 0)
(0.999167 0.00111832 0)
(0.999641 0.00129582 0)
(1.00038 0.00151002 0)
(1.00071 0.001963 0)
(1.00082 0.00250322 0)
(1.00084 0.00291042 0)
(1.00102 0.00319237 0)
(1.00121 0.00338106 0)
(0.999936 -0.000233454 0)
(0.999902 0.000170235 0)
(1.00059 -0.00107074 0)
(0.999251 -0.000988145 0)
(0.998324 0.000546973 0)
(0.999368 0.000228955 0)
(1.00038 -0.000613307 0)
(0.999472 -2.35294e-05 0)
(0.998991 0.000719243 0)
(0.999481 0.000466433 0)
(0.999939 0.000224006 0)
(0.999517 0.000672657 0)
(0.999358 0.00116523 0)
(0.999775 0.00136741 0)
(1.00056 0.0015293 0)
(1.00099 0.00187476 0)
(1.00112 0.00235458 0)
(1.00108 0.00277694 0)
(1.0012 0.00304012 0)
(1.00134 0.00321661 0)
(0.999961 -0.000228674 0)
(0.99987 0.000168785 0)
(1.00053 -0.000864012 0)
(0.999459 -0.00101931 0)
(0.998522 0.000410065 0)
(0.999311 0.000403736 0)
(1.00039 -0.00043878 0)
(0.999701 -0.000131518 0)
(0.999145 0.000645813 0)
(0.99948 0.000638539 0)
(1.00002 0.000415927 0)
(0.999737 0.000734332 0)
(0.999552 0.00121361 0)
(0.999902 0.00143119 0)
(1.00072 0.00154592 0)
(1.00122 0.00180832 0)
(1.0014 0.00220755 0)
(1.00133 0.00262487 0)
(1.00137 0.00290515 0)
(1.00147 0.00305029 0)
(0.999983 -0.000215676 0)
(0.999847 0.000147738 0)
(1.00047 -0.000666857 0)
(0.999633 -0.000995186 0)
(0.99874 0.000255951 0)
(0.999283 0.000514877 0)
(1.00037 -0.00024034 0)
(0.999893 -0.000164235 0)
(0.999329 0.000550584 0)
(0.999518 0.00072957 0)
(1.00009 0.000583932 0)
(0.999934 0.000812564 0)
(0.999747 0.00125891 0)
(1.00002 0.00149633 0)
(1.00084 0.00156434 0)
(1.00142 0.0017483 0)
(1.00167 0.0020762 0)
(1.00159 0.0024511 0)
(1.00155 0.00276618 0)
(1.00158 0.0029025 0)
(1 -0.000198408 0)
(0.999835 0.000120312 0)
(1.00041 -0.000494666 0)
(0.999771 -0.000913787 0)
(0.998967 0.000107805 0)
(0.999291 0.000559348 0)
(1.00033 -4.57793e-05 0)
(1.00004 -0.000129578 0)
(0.999525 0.000464237 0)
(0.999591 0.00077179 0)
(1.00016 0.000706147 0)
(1.00011 0.00088972 0)
(0.999941 0.00129939 0)
(1.00013 0.00155711 0)
(1.00092 0.00159781 0)
(1.00159 0.00169548 0)
(1.0019 0.00196085 0)
(1.00185 0.0022768 0)
(1.00175 0.0025983 0)
(1.00167 0.00277099 0)
(1.00002 -0.000176999 0)
(0.999832 9.10579e-05 0)
(1.00034 -0.000351261 0)
(0.999876 -0.000793677 0)
(0.999187 -8.80101e-06 0)
(0.999335 0.000547086 0)
(1.00028 0.000132858 0)
(1.00015 -4.66839e-05 0)
(0.999717 0.000410731 0)
(0.999692 0.000775676 0)
(1.00023 0.000787092 0)
(1.00028 0.000939516 0)
(1.00013 0.00132719 0)
(1.00024 0.00160411 0)
(1.00098 0.00164414 0)
(1.0017 0.0016602 0)
(1.0021 0.001854 0)
(1.00208 0.00212005 0)
(1.00197 0.00240598 0)
(1.00179 0.0026294 0)
(1.00003 -0.000153411 0)
(0.999836 6.47883e-05 0)
(1.00029 -0.000234398 0)
(0.999952 -0.000656753 0)
(0.999394 -8.19749e-05 0)
(0.999413 0.000498401 0)
(1.00025 0.000275001 0)
(1.00022 7.36777e-05 0)
(0.999892 0.000406082 0)
(0.99981 0.000769492 0)
(1.00031 0.000843998 0)
(1.00043 0.00096394 0)
(1.00033 0.00132941 0)
(1.00035 0.00163378 0)
(1.00101 0.00169233 0)
(1.00177 0.00164922 0)
(1.00226 0.00175438 0)
(1.00229 0.0019789 0)
(1.00219 0.00221293 0)
(1.00193 0.00245478 0)
(1.00004 -0.000130639 0)
(0.999846 4.74472e-05 0)
(1.00025 -0.000143508 0)