/*--------------------------------*- C++ -*----------------------------------*\
| =========                 |                                                 |
| \\      /  F ield         | OpenFOAM: The Open Source CFD Toolbox           |
|  \\    /   O peration     | Version:  2106                                  |
|   \\  /    A nd           | Website:  www.openfoam.com                      |
|    \\/     M anipulation  |                                                 |
\*---------------------------------------------------------------------------*/
FoamFile
{
    version     2.0;
    format      ascii;
    arch        "LSB;label=32;scalar=64";
    class       volVectorField;
    location    "0.905";
    object      U;
}
// * * * * * * * * * * * * * * * * * * * * * * * * * * * * * * * * * * * * * //

dimensions      [0 1 -1 0 0 0 0];

internalField   nonuniform List<vector> 
9600
(
(0.840407 -0.00377076 0)
(1.1537 0.00183208 0)
(0.891781 0.00422063 0)
(1.16209 0.00416946 0)
(0.807578 -0.0046323 0)
(1.13095 0.000663453 0)
(0.897308 -0.0118673 0)
(1.13471 0.00324611 0)
(0.898137 -0.00200619 0)
(1.13671 0.00899049 0)
(0.900538 0.00176448 0)
(1.11578 0.00670021 0)
(0.891011 -0.000460338 0)
(1.11104 0.00163042 0)
(0.89747 -0.00128029 0)
(1.11498 0.000857932 0)
(0.90454 -0.00180104 0)
(1.11665 -0.00296537 0)
(0.888764 -5.66598e-05 0)
(1.11584 -0.0107712 0)
(0.851965 -0.00381085 0)
(1.14474 0.00163661 0)
(0.903348 0.0039323 0)
(1.14932 0.00513711 0)
(0.832775 -0.00444218 0)
(1.11608 -0.000230603 0)
(0.917611 -0.0121937 0)
(1.12325 0.00336163 0)
(0.921282 -0.00215776 0)
(1.12032 0.00902916 0)
(0.931722 0.00191582 0)
(1.09118 0.00700262 0)
(0.933751 -0.000451636 0)
(1.07353 0.0016193 0)
(0.951387 -0.00144758 0)
(1.06049 0.000682112 0)
(0.976325 -0.00160118 0)
(1.03819 -0.00303932 0)
(0.988894 0.000809131 0)
(1.00216 -0.0118653 0)
(0.873229 -0.00386987 0)
(1.12521 0.00138225 0)
(0.924845 0.0037898 0)
(1.12557 0.00586237 0)
(0.872398 -0.00437318 0)
(1.08983 -0.000764042 0)
(0.946103 -0.0123713 0)
(1.09886 0.00341411 0)
(0.956029 -0.0021961 0)
(1.09033 0.00902938 0)
(0.97186 0.00230124 0)
(1.05689 0.00707029 0)
(0.976751 -0.000141274 0)
(1.03444 0.00130577 0)
(0.990437 -0.00114449 0)
(1.02254 9.54426e-05 0)
(1.0057 -0.00111445 0)
(1.00979 -0.00321713 0)
(1.00495 0.00141066 0)
(0.995856 -0.00888244 0)
(0.900929 -0.00391759 0)
(1.09748 0.00112464 0)
(0.950072 0.00371871 0)
(1.09519 0.00632429 0)
(0.914783 -0.00416966 0)
(1.05951 -0.00130961 0)
(0.972654 -0.0125161 0)
(1.06864 0.00328547 0)
(0.985726 -0.00207949 0)
(1.05895 0.00887321 0)
(0.998617 0.00275267 0)
(1.03036 0.00700193 0)
(0.997882 0.000254597 0)
(1.01261 0.00107786 0)
(1.00146 -0.000942199 0)
(1.00781 -0.000183109 0)
(1.00647 -0.000824813 0)
(1.00321 -0.0032461 0)
(1.00079 0.00196315 0)
(0.994928 -0.0074165 0)
(0.930216 -0.00393818 0)
(1.06705 0.000848994 0)
(0.972498 0.0036773 0)
(1.06425 0.00663748 0)
(0.950294 -0.00390074 0)
(1.03341 -0.0017777 0)
(0.990464 -0.0126268 0)
(1.04157 0.00307455 0)
(1.00245 -0.00191689 0)
(1.03511 0.0086862 0)
(1.0086 0.00314333 0)
(1.0153 0.00699426 0)
(1.00325 0.000607331 0)
(1.00366 0.000992293 0)
(1.00092 -0.000797173 0)
(1.00176 -0.00035295 0)
(1.00233 -0.000628575 0)
(0.999056 -0.00316992 0)
(0.997218 0.00229437 0)
(0.991776 -0.00627154 0)
(0.956279 -0.00393358 0)
(1.03987 0.000587292 0)
(0.988098 0.00366992 0)
(1.03826 0.0068249 0)
(0.974683 -0.00365336 0)
(1.01618 -0.00212194 0)
(0.999003 -0.012693 0)
(1.02215 0.00286158 0)
(1.00797 -0.00177441 0)
(1.02003 0.00857047 0)
(1.00889 0.00345522 0)
(1.00772 0.00702501 0)
(1.00315 0.000902209 0)
(1.00058 0.000965118 0)
(0.999088 -0.000651337 0)
(0.998836 -0.000482073 0)
(0.999354 -0.000451175 0)
(0.996246 -0.0030716 0)
(0.994916 0.0025075 0)
(0.990102 -0.00505763 0)
(0.976065 -0.00391088 0)
(1.01975 0.000383099 0)
(0.996314 0.00367929 0)
(1.0199 0.00691203 0)
(0.98886 -0.00346626 0)
(1.00759 -0.00233974 0)
(1.0016 -0.012704 0)
(1.01003 0.00266757 0)
(1.00736 -0.00165679 0)
(1.01106 0.00850575 0)
(1.00606 0.00369526 0)
(1.00386 0.00702294 0)
(1.0024 0.00114553 0)
(0.999987 0.000936939 0)
(0.998419 -0.000486169 0)
(0.997897 -0.000594951 0)
(0.997947 -0.00028229 0)
(0.995013 -0.00293505 0)
(0.993618 0.0026301 0)
(0.989701 -0.00382419 0)
(0.988922 -0.00387846 0)
(1.00729 0.000249878 0)
(0.999113 0.00368961 0)
(1.00888 0.00692928 0)
(0.996109 -0.00334946 0)
(1.00468 -0.00246745 0)
(1.00171 -0.0126489 0)
(1.00287 0.00249496 0)
(1.00456 -0.00155191 0)
(1.00552 0.00843876 0)
(1.00317 0.00388027 0)
(1.00183 0.00695624 0)
(1.0021 0.00134586 0)
(1.00042 0.0008898 0)
(0.998738 -0.000310894 0)
(0.998121 -0.000687909 0)
(0.997691 -0.000114519 0)
(0.994803 -0.00273735 0)
(0.993171 0.0026925 0)
(0.989892 -0.00262611 0)
(0.996049 -0.00384323 0)
(1.0008 0.000177917 0)
(0.999162 0.00369714 0)
(1.00329 0.006895 0)
(0.999589 -0.0032924 0)
(1.00442 -0.00254337 0)
(1.00123 -0.0125245 0)
(0.998545 0.00234477 0)
(1.00152 -0.0014485 0)
(1.00188 0.00834216 0)
(1.00103 0.00402411 0)
(1.0008 0.00682295 0)
(1.00217 0.00151077 0)
(1.00113 0.000820833 0)
(0.999459 -0.000132956 0)
(0.998774 -0.000751024 0)
(0.998024 4.02953e-05 0)
(0.995111 -0.00246174 0)
(0.993267 0.00270637 0)
(0.990378 -0.00148007 0)
(0.999375 -0.00380721 0)
(0.997871 0.00014776 0)
(0.998422 0.00370152 0)
(1.00109 0.00682031 0)
(1.00133 -0.00327198 0)
(1.00486 -0.00259093 0)
(1.00072 -0.0123374 0)
(0.995805 0.00221572 0)
(0.998996 -0.00133929 0)
(0.999448 0.00820695 0)
(0.999674 0.00413515 0)
(1.00033 0.00663278 0)
(1.00238 0.00165415 0)
(1.00173 0.000734093 0)
(1.00014 3.85494e-05 0)
(0.99941 -0.00078146 0)
(0.998492 0.000177688 0)
(0.995601 -0.00210863 0)
(0.993631 0.00268679 0)
(0.991021 -0.000416271 0)
(1.00064 -0.00376847 0)
(0.996627 0.000139204 0)
(0.997781 0.00370063 0)
(1.00075 0.00671542 0)
(1.00233 -0.0032637 0)
(1.00517 -0.00262042 0)
(1.00021 -0.0120994 0)
(0.99401 0.00210204 0)
(0.997177 -0.00122284 0)
(0.997942 0.00803226 0)
(0.998942 0.00422193 0)
(1.00019 0.00639987 0)
(1.00258 0.00178684 0)
(1.00211 0.000637386 0)
(1.00058 0.000203316 0)
(0.999833 -0.000777575 0)
(0.99885 0.000292589 0)
(0.996069 -0.00170247 0)
(0.994082 0.0026481 0)
(0.991723 0.000600607 0)
(1.00098 -0.00372453 0)
(0.996019 0.000138716 0)
(0.997404 0.00369016 0)
(1.00128 0.00658748 0)
(1.00302 -0.00324909 0)
(1.00517 -0.00263613 0)
(0.999678 -0.0118227 0)
(0.992838 0.00199547 0)
(0.995998 -0.00110012 0)
(0.997132 0.00781927 0)
(0.998655 0.0042952 0)
(1.00025 0.0061389 0)
(1.00272 0.00191478 0)
(1.00228 0.000544325 0)
(1.00075 0.000358842 0)
(1.00001 -0.000736177 0)
(0.999029 0.000372363 0)
(0.996424 -0.00125764 0)
(0.994517 0.00260433 0)
(0.99241 0.00152762 0)
(1.00101 -0.00367385 0)
(0.995628 0.000139545 0)
(0.997209 0.00366655 0)
(1.00209 0.00644063 0)
(1.00353 -0.00321717 0)
(1.00494 -0.00263959 0)
(0.999177 -0.0115179 0)
(0.992098 0.00188807 0)
(0.995308 -0.000973241 0)
(0.996796 0.00757151 0)
(0.99864 0.00436174 0)
(1.0004 0.00586118 0)
(1.0028 0.00204405 0)
(1.00232 0.000461896 0)
(1.00074 0.000495394 0)
(1.00001 -0.000655218 0)
(0.999062 0.000423939 0)
(0.996658 -0.000799061 0)
(0.994886 0.00258573 0)
(0.993034 0.00228829 0)
(1.00096 -0.00361608 0)
(0.995339 0.000139109 0)
(0.997108 0.00362918 0)
(1.00285 0.00627723 0)
(1.00391 -0.00316395 0)
(1.00462 -0.00263171 0)
(0.998757 -0.0111931 0)
(0.991664 0.00177441 0)
(0.99495 -0.000844669 0)
(0.996739 0.0072959 0)
(0.998749 0.00442261 0)
(1.00056 0.00557578 0)
(1.00282 0.00217235 0)
(1.00228 0.000399668 0)
(1.00063 0.000607125 0)
(0.999916 -0.000535821 0)
(0.999013 0.000453251 0)
(0.996805 -0.000355238 0)
(0.995183 0.00260311 0)
(0.993576 0.00291489 0)
(1.00092 -0.00355172 0)
(0.995142 0.000136668 0)
(0.997063 0.00357996 0)
(1.00343 0.00609894 0)
(1.00417 -0.00309003 0)
(1.00431 -0.00261454 0)
(0.998453 -0.0108533 0)
(0.991447 0.00165205 0)
(0.9948 -0.000714234 0)
(0.996824 0.00699562 0)
(0.998885 0.00448146 0)
(1.0007 0.00529034 0)
(1.0028 0.00229575 0)
(1.00222 0.000365758 0)
(1.00051 0.000694961 0)
(0.999798 -0.000385171 0)
(0.998942 0.00047191 0)
(0.996908 6.92813e-05 0)
(0.995425 0.00266628 0)
(0.99404 0.00341362 0)
(1.00089 -0.00348169 0)
(0.995037 0.000132046 0)
(0.997057 0.00352209 0)
(1.00379 0.00590744 0)
(1.00432 -0.00299859 0)
(1.00405 -0.00259054 0)
(0.998269 -0.010501 0)
(0.991384 0.00152094 0)
(0.994774 -0.000581991 0)
(0.996964 0.00667596 0)
(0.998993 0.00453814 0)
(1.0008 0.00501003 0)
(1.00273 0.00240962 0)
(1.00216 0.000360029 0)
(1.00041 0.000762933 0)
(0.999696 -0.000211834 0)
(0.998888 0.000494634 0)
(0.997 0.000462904 0)
(0.995635 0.00277733 0)
(0.994443 0.00380766 0)
(1.00087 -0.00340699 0)
(0.995012 0.000125082 0)
(0.997083 0.00345895 0)
(1.00397 0.00570465 0)
(1.00437 -0.00289356 0)
(1.00385 -0.0025623 0)
(0.99819 -0.010138 0)
(0.991431 0.00138415 0)
(0.994819 -0.000448781 0)
(0.997119 0.00634421 0)
(0.999054 0.00458713 0)
(1.00084 0.00474006 0)
(1.00264 0.0025059 0)
(1.0021 0.000384754 0)
(1.00033 0.000813399 0)
(0.999622 -2.86376e-05 0)
(0.998864 0.000534357 0)
(0.997101 0.000811567 0)
(0.995829 0.00292662 0)
(0.994803 0.00411991 0)
(1.00086 -0.00332841 0)
(0.995049 0.00011564 0)
(0.997134 0.00339321 0)
(1.00402 0.00549259 0)
(1.00433 -0.00277859 0)
(1.00367 -0.00253165 0)
(0.99819 -0.00976627 0)
(0.991556 0.00124358 0)
(0.994904 -0.000314919 0)
(0.997271 0.00600478 0)
(0.99907 0.0046276 0)
(1.00083 0.00448333 0)
(1.00253 0.00258427 0)
(1.00203 0.000435314 0)
(1.00028 0.000852491 0)
(0.999573 0.000165839 0)
(0.998869 0.000601525 0)
(0.997219 0.00111807 0)
(0.996019 0.00309846 0)
(0.995137 0.00436964 0)
(1.00085 -0.00324668 0)
(0.995128 0.000103888 0)
(0.997203 0.00332647 0)
(1.00399 0.00527329 0)
(1.00424 -0.0026568 0)
(1.00352 -0.00249907 0)
(0.998242 -0.00939 0)
(0.991732 0.00110183 0)
(0.995014 -0.000181132 0)
(0.997419 0.00566247 0)
(0.999054 0.00465944 0)
(1.00079 0.00424106 0)
(1.00239 0.00264403 0)
(1.00197 0.000504873 0)
(1.00025 0.000882981 0)
(0.999543 0.000369031 0)
(0.998896 0.000695626 0)
(0.997353 0.00139162 0)
(0.996211 0.00328027 0)
(0.995453 0.00457874 0)
(1.00083 -0.00316228 0)
(0.995233 8.97074e-05 0)
(0.997283 0.00325989 0)
(1.00391 0.00504861 0)
(1.00411 -0.002531 0)
(1.00338 -0.00246457 0)
(0.998322 -0.00901242 0)
(0.99194 0.000963943 0)
(0.995139 -4.96053e-05 0)
(0.997566 0.00532095 0)
(0.99902 0.00467916 0)
(1.00073 0.00401776 0)
(1.00226 0.0026817 0)
(1.00189 0.000592865 0)
(1.00023 0.000913721 0)
(0.999526 0.000567073 0)
(0.998938 0.000814999 0)
(0.997502 0.00164184 0)
(0.996406 0.00346357 0)
(0.995756 0.00476455 0)
(1.00082 -0.00307541 0)
(0.995352 7.28221e-05 0)
(0.997371 0.00319387 0)
(1.00381 0.00481992 0)
(1.00396 -0.0024022 0)
(1.00323 -0.00242826 0)
(0.998417 -0.00863483 0)
(0.992168 0.000830695 0)
(0.995271 7.85538e-05 0)
(0.997715 0.0049827 0)
(0.998981 0.00468533 0)
(1.00065 0.00381187 0)
(1.00212 0.00270056 0)
(1.00181 0.000694353 0)
(1.00022 0.000947879 0)
(0.999517 0.000761673 0)
(0.998992 0.000954189 0)
(0.997662 0.00187088 0)
(0.996607 0.00364009 0)
(0.996049 0.00493593 0)
(1.0008 -0.00298636 0)
(0.995479 5.36486e-05 0)
(0.997463 0.0031273 0)
(1.0037 0.00458994 0)
(1.00382 -0.0022734 0)
(1.00309 -0.00238711 0)
(0.998516 -0.00826097 0)
(0.992405 0.000703821 0)
(0.995406 0.000201962 0)
(0.997866 0.00464936 0)
(0.998942 0.00467961 0)
(1.00057 0.00361924 0)
(1.00199 0.00270509 0)
(1.00173 0.000805221 0)
(1.00022 0.000980774 0)
(0.999517 0.000956137 0)
(0.999052 0.00111055 0)
(0.997833 0.00207683 0)
(0.996815 0.00380224 0)
(0.996331 0.00509329 0)
(1.00078 -0.00289541 0)
(0.995611 3.26324e-05 0)
(0.997556 0.00305987 0)
(1.00359 0.00435962 0)
(1.00366 -0.00214657 0)
(1.00294 -0.00233989 0)
(0.998616 -0.00789224 0)
(0.992649 0.000584006 0)
(0.995543 0.000321901 0)
(0.998021 0.00432107 0)
(0.998907 0.00466293 0)
(1.00049 0.00344176 0)
(1.00186 0.00269288 0)
(1.00165 0.000926914 0)
(1.00022 0.00101648 0)
(0.999525 0.00114884 0)
(0.999118 0.00128303 0)
(0.99801 0.00226004 0)
(0.997029 0.00394986 0)
(0.996603 0.00523735 0)
(1.00077 -0.00280285 0)
(0.995747 1.01688e-05 0)
(0.99765 0.00299105 0)
(1.00347 0.00413027 0)
(1.00352 -0.00202212 0)
(1.00279 -0.0022866 0)
(0.998715 -0.00752911 0)
(0.992896 0.000471642 0)
(0.995678 0.00043755 0)
(0.998178 0.00399918 0)
(0.998877 0.00463708 0)
(1.00041 0.00328031 0)
(1.00175 0.00266374 0)
(1.00156 0.00105926 0)
(1.00023 0.00105835 0)
(0.999541 0.00133443 0)
(0.999187 0.00147244 0)
(0.998194 0.00242387 0)
(0.997252 0.0040826 0)
(0.996867 0.00536934 0)
(1.00075 -0.00270909 0)
(0.995886 -1.26504e-05 0)
(0.997744 0.00291862 0)
(1.00336 0.00390526 0)
(1.00337 -0.00190426 0)
(1.00265 -0.00222401 0)
(0.998813 -0.00717345 0)
(0.993148 0.000365861 0)
(0.995811 0.000550091 0)
(0.998337 0.00367905 0)
(0.998854 0.00460266 0)
(1.00032 0.00313802 0)
(1.00164 0.00261577 0)
(1.00148 0.00120498 0)
(1.00025 0.00110812 0)
(0.999569 0.00150788 0)
(0.999259 0.00168257 0)
(0.998382 0.00257397 0)
(0.997484 0.00419157 0)
(0.997122 0.00548979 0)
(1.00073 -0.0026141 0)
(0.996028 -3.58109e-05 0)
(0.99784 0.00284233 0)
(1.00324 0.00368572 0)
(1.00322 -0.00179431 0)
(1.00251 -0.00215273 0)
(0.99891 -0.00682441 0)
(0.993402 0.000264393 0)
(0.995941 0.000662602 0)
(0.998498 0.00335715 0)
(0.998837 0.00455584 0)
(1.00023 0.00301904 0)
(1.00155 0.00254814 0)
(1.0014 0.00136349 0)
(1.00026 0.00117294 0)
(0.99961 0.00165982 0)
(0.999334 0.00190617 0)
(0.998571 0.00272113 0)
(0.997725 0.00426887 0)
(0.997373 0.0055959 0)
(1.00071 -0.00251844 0)
(0.996173 -5.68286e-05 0)
(0.997936 0.00276093 0)
(1.00312 0.0034739 0)
(1.00307 -0.00169105 0)
(1.00237 -0.00207482 0)
(0.999006 -0.00648043 0)
(0.993661 0.000164745 0)
(0.996068 0.000776054 0)
(0.998661 0.00304145 0)
(0.998828 0.00449119 0)
(1.00014 0.00292839 0)
(1.00146 0.00246227 0)
(1.00133 0.00152681 0)
(1.00028 0.00126021 0)
(0.999664 0.00179111 0)
(0.999414 0.00213051 0)
(0.998757 0.00287543 0)
(0.997976 0.00431383 0)
(0.997626 0.00566679 0)
(1.00069 -0.00242261 0)
(0.996319 -7.77265e-05 0)
(0.998032 0.00267227 0)
(1.003 0.00327182 0)
(1.00293 -0.00159557 0)
(1.00223 -0.00198929 0)
(0.999101 -0.00614023 0)
(0.993924 6.30054e-05 0)
(0.996191 0.000893011 0)
(0.998825 0.00273813 0)
(0.998829 0.0044044 0)
(1.00004 0.00287083 0)
(1.00139 0.0023586 0)
(1.00126 0.00168878 0)
(1.0003 0.00137816 0)
(0.999732 0.00190551 0)
(0.999502 0.00234178 0)
(0.998938 0.00303931 0)
(0.99823 0.00433888 0)
(0.997888 0.00568311 0)
(1.00067 -0.00232688 0)
(0.996468 -9.79494e-05 0)
(0.99813 0.00257542 0)
(1.00288 0.00307884 0)
(1.00278 -0.00150716 0)
(1.00209 -0.00189925 0)
(0.999194 -0.00580046 0)
(0.994192 -4.21854e-05 0)
(0.996311 0.00101179 0)
(0.998988 0.00244928 0)
(0.998842 0.00428849 0)
(0.999935 0.00285279 0)
(1.00133 0.00224814 0)
(1.00121 0.00184098 0)
(1.00032 0.00153157 0)
(0.999809 0.00200882 0)
(0.999601 0.00253148 0)
(0.999113 0.00321402 0)
(0.998482 0.00436814 0)
(0.998162 0.00564945 0)
(1.00065 -0.00223169 0)
(0.996617 -0.000111391 0)
(0.998227 0.00246908 0)
(1.00276 0.00289464 0)
(1.00264 -0.00142314 0)
(1.00195 -0.00180963 0)
(0.999284 -0.00545823 0)
(0.994465 -0.000153927 0)
(0.996428 0.00112891 0)
(0.999149 0.00218063 0)
(0.99887 0.00413957 0)
(0.999828 0.00286902 0)
(1.00127 0.00214321 0)
(1.00117 0.0019708 0)
(1.00033 0.00171405 0)
(0.999892 0.00210962 0)
(0.999713 0.00269143 0)
(0.999284 0.00338524 0)
(0.998724 0.00441843 0)
(0.998441 0.00559199 0)
(1.00062 -0.00213739 0)
(0.996767 -0.000122887 0)
(0.998323 0.0023553 0)
(1.00265 0.00271917 0)
(1.00249 -0.00134327 0)
(1.00181 -0.00171956 0)
(0.999368 -0.00511248 0)
(0.994744 -0.000269005 0)
(0.996543 0.00123772 0)
(0.999305 0.00194295 0)
(0.998915 0.00395747 0)
(0.99972 0.00290902 0)
(1.00122 0.00205452 0)
(1.00115 0.00206993 0)
(1.00035 0.00191042 0)
(0.999976 0.00221338 0)
(0.999837 0.0028236 0)
(0.999457 0.00353522 0)
(0.998955 0.00448453 0)
(0.998716 0.00554252 0)
(1.0006 -0.00204395 0)
(0.996917 -0.000130989 0)
(0.998419 0.00223046 0)
(1.00253 0.00255133 0)
(1.00235 -0.00126559 0)
(1.00168 -0.00163319 0)
(0.999446 -0.00476139 0)
(0.995026 -0.000380239 0)
(0.996657 0.00133189 0)
(0.999455 0.00174727 0)
(0.998979 0.00374838 0)
(0.999614 0.00296623 0)
(1.00118 0.0019983 0)
(1.00116 0.00214268 0)
(1.00037 0.00211124 0)
(1.00006 0.00232148 0)
(0.999971 0.00293215 0)
(0.999634 0.00366378 0)
(0.999179 0.00454733 0)
(0.998979 0.00551519 0)
(1.00058 -0.00195219 0)
(0.997066 -0.000132664 0)
(0.998513 0.00209818 0)
(1.00242 0.00238676 0)
(1.00221 -0.00118276 0)
(1.00155 -0.00155777 0)
(0.999517 -0.00440474 0)
(0.99531 -0.000486481 0)
(0.996773 0.0014045 0)
(0.999597 0.00159064 0)
(0.999061 0.00352348 0)
(0.999514 0.00302643 0)
(1.00113 0.00197865 0)
(1.00118 0.00219217 0)
(1.00039 0.00230977 0)
(1.00014 0.00243569 0)
(1.00011 0.00301283 0)
(0.999816 0.00377689 0)
(0.9994 0.00459832 0)
(0.999229 0.00550078 0)
(1.00056 -0.00186194 0)
(0.997214 -0.000130331 0)
(0.998605 0.00196329 0)
(1.00231 0.00221882 0)
(1.00207 -0.00108882 0)
(1.00142 -0.00149349 0)
(0.99958 -0.00404888 0)
(0.995594 -0.000583343 0)
(0.996891 0.00144959 0)
(0.999729 0.00146672 0)
(0.999161 0.00329125 0)
(0.999425 0.00308378 0)
(1.00108 0.00199169 0)
(1.00122 0.00221915 0)
(1.00042 0.00249751 0)
(1.00021 0.00256291 0)
(1.00026 0.00306634 0)
(1.00001 0.00387152 0)
(0.999617 0.00464469 0)
(0.999468 0.00547901 0)
(1.00054 -0.00177318 0)
(0.99736 -0.000122574 0)
(0.998695 0.00182429 0)
(1.0022 0.00204624 0)
(1.00194 -0.00098126 0)
(1.0013 -0.00143482 0)
(0.999637 -0.00370043 0)
(0.995874 -0.00066049 0)
(0.997012 0.00146291 0)
(0.999851 0.00137666 0)
(0.999279 0.00306451 0)
(0.999348 0.00313575 0)
(1.00102 0.00203487 0)
(1.00128 0.0022316 0)
(1.00047 0.00266629 0)
(1.00027 0.00270697 0)
(1.00042 0.00309946 0)
(1.00021 0.00393484 0)
(0.999831 0.00469592 0)
(0.999699 0.00544407 0)
(1.00052 -0.001686 0)
(0.997503 -0.000113662 0)
(0.998782 0.00169026 0)
(1.0021 0.00186212 0)
(1.0018 -0.000858795 0)
(1.00118 -0.00138244 0)
(0.999689 -0.00336551 0)
(0.996148 -0.000702326 0)
(0.997138 0.00145143 0)
(0.999964 0.00131113 0)
(0.999412 0.00285123 0)
(0.999289 0.00317763 0)
(1.00096 0.00210086 0)
(1.00135 0.00222861 0)
(1.00053 0.0028039 0)
(1.00032 0.00286701 0)
(1.00057 0.0031271 0)
(1.00042 0.00395608 0)
(1.00005 0.00474877 0)
(0.999919 0.0054098 0)
(1.00049 -0.00159965 0)
(0.997643 -0.000106 0)
(0.998863 0.00156472 0)
(1.002 0.00166129 0)
(1.00167 -0.000724644 0)
(1.00107 -0.0013291 0)
(0.999737 -0.00305325 0)
(0.996415 -0.000709325 0)
(0.997265 0.0014261 0)
(1.00007 0.001258 0)
(0.999559 0.0026563 0)
(0.999247 0.00320968 0)
(1.0009 0.00218325 0)
(1.00143 0.00221211 0)
(1.00061 0.00290556 0)
(1.00037 0.00304073 0)
(1.0007 0.00316929 0)
(1.00065 0.00393459 0)
(1.00027 0.00478163 0)
(1.00013 0.00538802 0)
(1.00047 -0.00151399 0)
(0.997779 -0.000101307 0)
(0.998938 0.0014532 0)
(1.0019 0.00144356 0)
(1.00153 -0.000585547 0)
(1.00095 -0.00126251 0)
(0.999781 -0.00277211 0)
(0.996674 -0.000688268 0)
(0.997392 0.00139751 0)
(1.00017 0.00121001 0)
(0.999719 0.00247607 0)
(0.999225 0.00322994 0)
(1.00082 0.00227691 0)
(1.00152 0.00218429 0)
(1.00072 0.00296455 0)
(1.00041 0.00321788 0)
(1.00082 0.00324245 0)
(1.00088 0.00388801 0)
(1.0005 0.00477729 0)
(1.00033 0.00537878 0)
(1.00045 -0.00142787 0)
(0.997913 -0.000102047 0)
(0.999006 0.00135791 0)
(1.00181 0.00121233 0)
(1.00141 -0.00045172 0)
(1.00084 -0.00117923 0)
(0.999823 -0.00252771 0)
(0.996926 -0.000637562 0)
(0.997518 0.00137617 0)
(1.00026 0.00116933 0)
(0.999892 0.00230273 0)
(0.999225 0.00323542 0)
(1.00074 0.0023837 0)
(1.0016 0.0021565 0)
(1.00085 0.00297751 0)
(1.00046 0.00337758 0)
(1.00091 0.00334623 0)
(1.00112 0.00383636 0)
(1.00076 0.00472984 0)
(1.00053 0.00536484 0)
(1.00042 -0.00134127 0)
(0.998043 -0.000109141 0)
(0.999064 0.00127928 0)
(1.00173 0.000977728 0)
(1.00129 -0.000338023 0)
(1.00072 -0.0010627 0)
(0.999861 -0.00231384 0)
(0.997172 -0.000572765 0)
(0.99764 0.00137404 0)
(1.00034 0.00114125 0)
(1.00007 0.00212881 0)
(0.999248 0.00322482 0)
(1.00064 0.00250425 0)
(1.00167 0.00214238 0)
(1.00102 0.00295148 0)
(1.00053 0.00350428 0)
(1.00098 0.00347313 0)
(1.00133 0.00379864 0)
(1.00103 0.00464741 0)
(1.00074 0.00533066 0)
(1.0004 -0.00125414 0)
(0.998171 -0.000122364 0)
(0.999113 0.00121849 0)
(1.00165 0.000745719 0)
(1.00118 -0.000254756 0)
(1.0006 -0.000913159 0)
(0.999893 -0.00211486 0)
(0.997414 -0.000510337 0)
(0.997758 0.00139811 0)
(1.0004 0.00113453 0)
(1.00026 0.00194774 0)
(0.999299 0.0031913 0)
(1.00054 0.00263808 0)
(1.00173 0.00215171 0)
(1.0012 0.00289231 0)
(1.00062 0.00358645 0)
(1.00103 0.00360727 0)
(1.00152 0.00378451 0)
(1.00131 0.00454237 0)
(1.00096 0.00527254 0)
(1.00038 -0.001166 0)
(0.998297 -0.000140798 0)
(0.999153 0.001172 0)
(1.00157 0.0005218 0)
(1.00109 -0.000212555 0)
(1.00048 -0.000735647 0)
(0.999917 -0.00192473 0)
(0.997654 -0.00045581 0)
(0.997875 0.00143236 0)
(1.00044 0.00115555 0)
(1.00046 0.00176887 0)
(0.999382 0.00312147 0)
(1.00044 0.00277643 0)
(1.00177 0.00219285 0)
(1.0014 0.0028133 0)
(1.00074 0.0036203 0)
(1.00108 0.00373429 0)
(1.00167 0.00379672 0)
(1.00159 0.00442412 0)
(1.0012 0.00518719 0)
(1.00035 -0.00107577 0)
(0.998421 -0.000168891 0)
(0.999182 0.00113796 0)
(1.00149 0.00031765 0)
(1.00102 -0.000217797 0)
(1.00037 -0.000536101 0)
(0.999929 -0.00173195 0)
(0.997892 -0.000421037 0)
(0.997993 0.00146626 0)
(1.00047 0.00120901 0)
(1.00064 0.00160872 0)
(0.999498 0.00300896 0)
(1.00035 0.00290404 0)
(1.00177 0.00227079 0)
(1.0016 0.00273451 0)
(1.0009 0.00360643 0)
(1.00112 0.00384198 0)
(1.00179 0.00383374 0)
(1.00186 0.00430274 0)
(1.00146 0.00506762 0)
(1.00032 -0.00098455 0)
(0.998544 -0.000204503 0)
(0.999203 0.00111176 0)
(1.00141 0.000145836 0)
(1.00096 -0.000267085 0)
(1.00025 -0.000334966 0)
(0.999925 -0.00151729 0)
(0.998125 -0.000402259 0)
(0.998117 0.00149016 0)
(1.00047 0.00129634 0)
(1.00081 0.00148196 0)
(0.999646 0.00285918 0)
(1.00027 0.00300331 0)
(1.00174 0.00238266 0)
(1.00178 0.00267522 0)
(1.00108 0.00354988 0)
(1.00117 0.00391543 0)
(1.00188 0.00388887 0)
(1.00211 0.00419372 0)
(1.00174 0.00490982 0)
(1.0003 -0.000891474 0)
(0.998664 -0.00024756 0)
(0.999218 0.00108885 0)
(1.00132 1.00654e-05 0)
(1.00092 -0.000353722 0)
(1.00016 -0.000150877 0)
(0.999903 -0.00127523 0)
(0.99835 -0.000391061 0)
(0.998252 0.00149051 0)
(1.00045 0.00140467 0)
(1.00096 0.00139786 0)
(0.999819 0.00268363 0)
(1.00023 0.00306012 0)
(1.0017 0.00250974 0)
(1.00195 0.0026471 0)
(1.00129 0.00346864 0)
(1.00125 0.0039481 0)
(1.00193 0.00395497 0)
(1.00231 0.00411949 0)
(1.00203 0.00472643 0)
(1.00027 -0.000797015 0)
(0.998784 -0.00029964 0)
(0.999228 0.00106602 0)
(1.00122 -7.92566e-05 0)
(1.0009 -0.00046837 0)
(1.00008 -3.84364e-06 0)
(0.999864 -0.000998538 0)
(0.99856 -0.000375044 0)
(0.9984 0.00145895 0)
(1.00043 0.00152044 0)
(1.00108 0.00136514 0)
(1.00001 0.00250066 0)
(1.00021 0.00306837 0)
(1.00163 0.00263263 0)
(1.00208 0.00265146 0)
(1.00151 0.00338218 0)
(1.00135 0.00393808 0)
(1.00196 0.00401063 0)
(1.00246 0.00408564 0)
(1.00231 0.00454174 0)
(1.00025 -0.000702434 0)
(0.998903 -0.00035772 0)
(0.999238 0.00104027 0)
(1.00111 -0.000118188 0)
(1.00089 -0.00059765 0)
(1.00002 9.82459e-05 0)
(0.999812 -0.00070022 0)
(0.998747 -0.00033412 0)
(0.998562 0.00138975 0)
(1.0004 0.0016244 0)
(1.00117 0.00138567 0)
(1.00021 0.00233411 0)
(1.00023 0.0030265 0)
(1.00157 0.0027341 0)
(1.00218 0.00267467 0)
(1.00173 0.00329906 0)
(1.00148 0.00389351 0)
(1.002 0.00403626 0)
(1.00257 0.00407673 0)
(1.00257 0.00438248 0)
(1.00022 -0.00060861 0)
(0.99902 -0.000417184 0)
(0.999252 0.00100453 0)
(1.00098 -0.00010763 0)
(1.0009 -0.000725877 0)
(1 0.000145902 0)
(0.999753 -0.000398841 0)
(0.998906 -0.000261265 0)
(0.998734 0.00129687 0)
(1.00038 0.00169927 0)
(1.00122 0.00144691 0)
(1.00039 0.00219917 0)
(1.00029 0.00295216 0)
(1.00151 0.00280591 0)
(1.00226 0.0027032 0)
(1.00194 0.00321971 0)
(1.00163 0.00382789 0)
(1.00204 0.00403303 0)
(1.00264 0.00407181 0)
(1.00277 0.00426524 0)
(1.0002 -0.000517077 0)
(0.999137 -0.000473009 0)
(0.999273 0.000952821 0)
(1.00085 -5.79132e-05 0)
(1.0009 -0.000833284 0)
(1.00002 0.000125 0)
(0.999697 -0.000110335 0)
(0.999032 -0.000139409 0)
(0.998911 0.00120076 0)
(1.00038 0.0017388 0)
(1.00126 0.00152883 0)
(1.00057 0.0021044 0)
(1.00037 0.0028622 0)
(1.00146 0.00284671 0)
(1.00231 0.0027307 0)
(1.00214 0.00314264 0)
(1.0018 0.00374265 0)
(1.0021 0.0040067 0)
(1.00269 0.00405402 0)
(1.00293 0.00418235 0)
(1.00017 -0.000431269 0)
(0.99925 -0.000517489 0)
(0.999306 0.000878759 0)
(1.00071 1.34581e-05 0)
(1.0009 -0.0008979 0)
(1.00007 5.6156e-05 0)
(0.999658 0.000143406 0)
(0.999127 3.93769e-05 0)
(0.999083 0.00111875 0)
(1.0004 0.00173494 0)
(1.00128 0.00161064 0)
(1.00072 0.00205495 0)
(1.00046 0.00277257 0)
(1.00143 0.00286343 0)
(1.00235 0.00275796 0)
(1.00232 0.00307391 0)
(1.00198 0.00363815 0)
(1.00218 0.00395686 0)
(1.00273 0.00401944 0)
(1.00304 0.00411512 0)
(1.00015 -0.000352759 0)
(0.99936 -0.000546429 0)
(0.999351 0.000781095 0)
(1.00057 0.000105956 0)
(1.00088 -0.000908782 0)
(1.00015 -5.13249e-05 0)
(0.999645 0.00034388 0)
(0.999194 0.000253881 0)
(0.999237 0.00107447 0)
(1.00044 0.00169199 0)
(1.0013 0.00167516 0)
(1.00086 0.00203525 0)
(1.00057 0.00269626 0)
(1.00142 0.00286309 0)
(1.00237 0.00278134 0)
(1.00248 0.00301827 0)
(1.00217 0.00352356 0)
(1.00227 0.00387949 0)
(1.00276 0.00396749 0)
(1.00312 0.00404863 0)
(1.00013 -0.000283262 0)
(0.999463 -0.000556156 0)
(0.99941 0.000663264 0)
(1.00044 0.000207503 0)
(1.00085 -0.000855565 0)
(1.00026 -0.000188576 0)
(0.99967 0.000460102 0)
(0.999244 0.00048316 0)
(0.999367 0.00107792 0)
(1.0005 0.00164023 0)
(1.00132 0.00170792 0)
(1.00099 0.00202687 0)
(1.00068 0.00263188 0)
(1.00141 0.00285174 0)
(1.00238 0.0027957 0)
(1.00261 0.00297189 0)
(1.00236 0.00341138 0)
(1.00238 0.00377954 0)
(1.00281 0.00389399 0)
(1.00317 0.00397079 0)
(1.00012 -0.000224753 0)
(0.999557 -0.000543222 0)
(0.999482 0.000530644 0)
(1.00032 0.000297888 0)
(1.0008 -0.000745203 0)
(1.00038 -0.000310859 0)
(0.999739 0.000482196 0)
(0.999291 0.000702005 0)
(0.99947 0.00113473 0)
(1.00055 0.00159672 0)
(1.00136 0.00171456 0)
(1.00111 0.00201867 0)
(1.0008 0.00257668 0)
(1.00143 0.0028336 0)
(1.00238 0.00280548 0)
(1.00273 0.00293158 0)
(1.00254 0.00330607 0)
(1.0025 0.00367157 0)
(1.00286 0.00380334 0)
(1.00322 0.00387415 0)
(1.0001 -0.000176219 0)
(0.99964 -0.000512814 0)
(0.999564 0.0003965 0)
(1.00022 0.000365483 0)
(1.00074 -0.000596354 0)
(1.00048 -0.000392476 0)
(0.999851 0.00044253 0)
(0.999356 0.000874901 0)
(0.999547 0.00123795 0)
(1.0006 0.0015705 0)
(1.0014 0.001704 0)
(1.00123 0.001999 0)
(1.00093 0.00252104 0)
(1.00145 0.00280452 0)
(1.00238 0.00280687 0)
(1.00282 0.00289802 0)
(1.00271 0.0032055 0)
(1.00263 0.0035604 0)
(1.00291 0.00370958 0)
(1.00327 0.00376221 0)
(1.00009 -0.000138613 0)
(0.999712 -0.000465468 0)
(0.999654 0.000268796 0)
(1.00015 0.000404309 0)
(1.00066 -0.000426149 0)
(1.00058 -0.000418246 0)
(0.999996 0.000365233 0)
(0.999448 0.000981573 0)
(0.999608 0.00135353 0)
(1.00063 0.0015878 0)
(1.00144 0.001688 0)
(1.00135 0.00196804 0)
(1.00106 0.00246139 0)
(1.00149 0.0027661 0)
(1.00238 0.00279518 0)
(1.00289 0.00286684 0)
(1.00287 0.00311419 0)
(1.00277 0.00344039 0)
(1.00297 0.00361715 0)
(1.0033 0.00364897 0)
(1.00008 -0.000110401 0)
(0.999772 -0.00040331 0)
(0.999745 0.000153123 0)
(1.0001 0.000415006 0)
(1.00057 -0.000253864 0)
(1.00065 -0.000379434 0)
(1.00016 0.000274063 0)
(0.999575 0.00101426 0)
(0.99967 0.00145424 0)
(1.00065 0.00163732 0)
(1.00147 0.00168894 0)
(1.00146 0.0019311 0)
(1.00119 0.00239379 0)
(1.00155 0.00271772 0)
(1.00239 0.00277219 0)
(1.00295 0.00282803 0)
(1.00301 0.00303439 0)
(1.00291 0.00331642 0)
(1.00303 0.00351696 0)
(1.00333 0.00355006 0)
(1.00007 -9.07939e-05 0)
(0.99982 -0.000332396 0)
(0.999835 6.07914e-05 0)
(1.00007 0.00039728 0)
(1.00049 -8.84566e-05 0)
(1.0007 -0.000291349 0)
(1.00033 0.000204721 0)
(0.999734 0.000984352 0)
(0.999746 0.00152653 0)
(1.00065 0.00169159 0)
(1.00149 0.00171046 0)
(1.00157 0.00190232 0)
(1.00134 0.00231862 0)
(1.00162 0.00265219 0)
(1.0024 0.00273818 0)
(1.003 0.00277842 0)
(1.00313 0.00295477 0)
(1.00305 0.00319781 0)
(1.00311 0.00339837 0)
(1.00334 0.00345831 0)
(1.00007 -7.70532e-05 0)
(0.999857 -0.000258675 0)
(0.999918 -3.14345e-06 0)
(1.00007 0.000359344 0)
(1.00042 5.76621e-05 0)
(1.00072 -0.000174443 0)
(1.00048 0.000170526 0)
(0.999919 0.000923038 0)
(0.999843 0.00154547 0)
(1.00065 0.00174714 0)
(1.0015 0.00173946 0)
(1.00166 0.0018906 0)
(1.00148 0.00225251 0)
(1.0017 0.00257267 0)
(1.00241 0.00268881 0)
(1.00304 0.00272259 0)
(1.00324 0.00286664 0)
(1.00319 0.00308557 0)
(1.0032 0.00326957 0)
(1.00335 0.00335494 0)
(1.00007 -6.69228e-05 0)
(0.999883 -0.000188687 0)
(0.99999 -3.64137e-05 0)
(1.00009 0.000312854 0)
(1.00037 0.000177417 0)
(1.00072 -3.64773e-05 0)
(1.00061 0.000179892 0)
(1.00011 0.000856489 0)
(0.999966 0.001511 0)
(1.00067 0.00178147 0)
(1.00149 0.00177218 0)
(1.00174 0.00188226 0)
(1.0016 0.00219997 0)
(1.00179 0.0024928 0)
(1.00244 0.00262141 0)
(1.00308 0.00265863 0)
(1.00334 0.00277119 0)
(1.00331 0.00296809 0)
(1.00329 0.00314293 0)
(1.00338 0.00323409 0)
(1.00007 -5.75663e-05 0)
(0.999902 -0.000127402 0)
(1.00005 -4.11863e-05 0)
(1.00013 0.000268241 0)
(1.00033 0.000266063 0)
(1.00071 0.00010913 0)
(1.00072 0.000233744 0)
(1.0003 0.000800579 0)
(1.00011 0.00145623 0)
(1.00069 0.00177506 0)
(1.00148 0.00180246 0)
(1.0018 0.00187605 0)
(1.00172 0.00215313 0)
(1.00187 0.0024229 0)
(1.00246 0.00254879 0)
(1.0031 0.00258313 0)
(1.00342 0.00267269 0)
(1.00343 0.00283905 0)
(1.00338 0.0030127 0)
(1.00341 0.00310345 0)
(1.00007 -4.86015e-05 0)
(0.999917 -7.49525e-05 0)
(1.0001 -2.59401e-05 0)
(1.00017 0.00023697 0)
(1.00032 0.000326249 0)
(1.0007 0.000241628 0)
(1.0008 0.000313171 0)
(1.00048 0.000769618 0)
(1.00026 0.00139329 0)
(1.00074 0.0017429 0)
(1.00148 0.00180866 0)
(1.00184 0.00187288 0)
(1.00182 0.00210642 0)
(1.00195 0.00235653 0)
(1.00248 0.00248056 0)
(1.00311 0.00250279 0)
(1.00348 0.00257047 0)
(1.00354 0.00270568 0)
(1.00348 0.00286941 0)
(1.00345 0.00296934 0)
(1.00007 -3.96754e-05 0)
(0.999929 -2.95317e-05 0)
(1.00013 3.7783e-06 0)
(1.00022 0.000222541 0)
(1.00033 0.000368634 0)