/*--------------------------------*- C++ -*----------------------------------*\
| =========                 |                                                 |
| \\      /  F ield         | OpenFOAM: The Open Source CFD Toolbox           |
|  \\    /   O peration     | Version:  2106                                  |
|   \\  /    A nd           | Website:  www.openfoam.com                      |
|    \\/     M anipulation  |                                                 |
\*---------------------------------------------------------------------------*/
FoamFile
{
    version     2.0;
    format      ascii;
    arch        "LSB;label=32;scalar=64";
    class       volScalarField;
    location    "0.445";
    object      p;
}
// * * * * * * * * * * * * * * * * * * * * * * * * * * * * * * * * * * * * * //

dimensions      [0 2 -2 0 0 0 0];

internalField   nonuniform List<scalar> 
9600
(
-5.65956e-12
0.00170156
0.00148443
0.00320253
0.00140051
0.00282043
0.00236519
0.00295427
0.00321115
0.00329424
0.00315793
0.00322031
0.00325929
0.00322251
0.00335015
0.0049555
0.00458408
0.00550413
0.00665621
0.00953175
4.98626e-07
0.00170086
0.00148622
0.00320677
0.00140007
0.0028142
0.0023688
0.00295633
0.00321512
0.00329343
0.00316177
0.00322012
0.00327101
0.00321195
0.00335768
0.00485167
0.00460095
0.00546902
0.00666756
0.0092327
1.46473e-06
0.00170126
0.00148902
0.00321184
0.00139836
0.00280512
0.00237558
0.0029621
0.00322058
0.00329191
0.00316777
0.0032181
0.00328325
0.00318954
0.00336494
0.0047803
0.00462576
0.00542288
0.00666077
0.00886425
3.0517e-06
0.00170342
0.00149275
0.00321659
0.00139689
0.00279874
0.00238333
0.00297034
0.00322568
0.00328958
0.00317385
0.00321329
0.00329607
0.00315743
0.0033769
0.00469705
0.00464433
0.00537882
0.00662409
0.00852284
5.43036e-06
0.00170706
0.00149789
0.0032211
0.00139662
0.0027944
0.00239034
0.00297914
0.0032297
0.00328608
0.00317926
0.00320719
0.00331032
0.00312127
0.00339466
0.00460846
0.00466241
0.00533444
0.00655944
0.0082176
8.58994e-06
0.00171174
0.00150479
0.00322491
0.00139749
0.0027906
0.00239595
0.0029871
0.00323256
0.0032813
0.0031841
0.00320081
0.00332575
0.00308606
0.00341714
0.00451951
0.00468101
0.00528571
0.00647308
0.00794092
1.23876e-05
0.00171713
0.00151355
0.00322762
0.00139941
0.00278708
0.00240016
0.0029937
0.00323474
0.00327524
0.0031888
0.00319434
0.00334204
0.00305412
0.0034426
0.00443356
0.00469585
0.00523515
0.00636808
0.00768169
1.66501e-05
0.00172307
0.00152416
0.0032292
0.0014026
0.00278377
0.00240321
0.00299904
0.00323676
0.00326795
0.00319375
0.00318772
0.00335901
0.00302613
0.00347035
0.00435168
0.00470437
0.00518714
0.00624308
0.00743331
2.12478e-05
0.00172958
0.00153665
0.00322978
0.00140743
0.00278043
0.00240535
0.00300329
0.00323896
0.00325951
0.00319926
0.00318092
0.00337642
0.00300263
0.00349933
0.00427482
0.00470615
0.00514339
0.00609736
0.00719316
2.61259e-05
0.00173671
0.00155099
0.00322949
0.00141425
0.0027767
0.00240676
0.00300654
0.00324153
0.00324991
0.00320551
0.00317388
0.00339396
0.00298392
0.00352804
0.00420444
0.00470048
0.0051039
0.00593352
0.00695932
3.12989e-05
0.00174449
0.00156708
0.00322848
0.00142329
0.00277222
0.00240769
0.00300871
0.00324462
0.00323912
0.0032126
0.00316657
0.00341132
0.00296999
0.0035551
0.00414407
0.00468606
0.00506853
0.00575599
0.00672841
3.68256e-05
0.0017528
0.00158477
0.00322693
0.00143459
0.00276672
0.00240844
0.00300966
0.00324841
0.0032271
0.00322053
0.00315898
0.00342818
0.00296065
0.00357899
0.00409325
0.00466165
0.00503642
0.00556948
0.00649627
4.27839e-05
0.00176145
0.00160391
0.00322503
0.00144795
0.00275997
0.00240944
0.00300923
0.00325312
0.00321383
0.00322929
0.0031512
0.00344417
0.00295569
0.00359822
0.00405264
0.00462627
0.0050052
0.00537853
0.00625948
4.92588e-05
0.0017702
0.00162436
0.00322291
0.00146308
0.00275183
0.00241115
0.00300726
0.00325899
0.00319929
0.00323877
0.00314348
0.0034587
0.00295497
0.00361135
0.00402967
0.00457958
0.00497121
0.00518754
0.00601615
5.63419e-05
0.00177885
0.00164604
0.00322069
0.00147972
0.00274214
0.00241402
0.00300364
0.00326622
0.00318349
0.00324877
0.00313626
0.00347116
0.00295846
0.00361705
0.00400653
0.00452242
0.00493007
0.00500038
0.00576611
6.41355e-05
0.00178718
0.00166891
0.00321841
0.00149768
0.00273073
0.00241841
0.00299823
0.00327494
0.00316657
0.00325895
0.00313004
0.00348083
0.00296629
0.00361463
0.00398839
0.00445637
0.00487773
0.00482007
0.00551062
7.27537e-05
0.00179501
0.00169296
0.00321608
0.0015169
0.00271745
0.00242459
0.00299092
0.00328514
0.00314874
0.00326893
0.0031254
0.00348683
0.00297851
0.00360407
0.00397322
0.00438339
0.00481134
0.00464831
0.00525179
8.23222e-05
0.00180216
0.00171822
0.00321367
0.0015374
0.00270211
0.00243275
0.00298169
0.00329672
0.00313032
0.00327812
0.0031231
0.00348857
0.00299479
0.00358584
0.0039584
0.00430558
0.00472953
0.00448546
0.00499239
9.2983e-05
0.00180844
0.00174472
0.00321113
0.00155929
0.00268453
0.00244298
0.00297056
0.00330952
0.00311175
0.0032858
0.00312384
0.00348575
0.00301441
0.00356101
0.00394126
0.00422477
0.0046325
0.00433059
0.00473571
0.000104897
0.00181364
0.00177248
0.0032084
0.00158268
0.00266455
0.0024553
0.00295758
0.00332328
0.00309368
0.00329127
0.00312809
0.00347821
0.00303634
0.00353106
0.0039196
0.0041422
0.00452158
0.00418191
0.00448524
0.000118244
0.00181754
0.00180151
0.00320542
0.00160767
0.00264203
0.00246971
0.0029429
0.00333755
0.00307683
0.00329388
0.0031361
0.00346607
0.00305925
0.00349758
0.00389177
0.0040585
0.00439862
0.0040375
0.0042442
0.000133224
0.0018199
0.00183183
0.00320213
0.00163435
0.00261688
0.0024861
0.00292686
0.00335174
0.00306194
0.00329313
0.00314794
0.00344984
0.00308156
0.00346159
0.0038564
0.00397395
0.00426592
0.00389549
0.00401479
0.000150057
0.00182047
0.0018634
0.00319849
0.00166281
0.00258911
0.00250422
0.00290992
0.00336514
0.00304967
0.00328861
0.00316333
0.00343045
0.00310181
0.00342032
0.00381256
0.00388868
0.00412594
0.00375409
0.00379773
0.000168973
0.00181898
0.00189618
0.0031945
0.00169308
0.00255881
0.00252378
0.00289264
0.00337711
0.00304051
0.00328013
0.00318154
0.00340886
0.00311876
0.00338087
0.0037599
0.00380259
0.00398122
0.0036121
0.00359235
0.000190218
0.00181515
0.00193005
0.00319015
0.00172516
0.00252609
0.00254436
0.00287565
0.00338708
0.00303483
0.00326785
0.00320159
0.00338578
0.00313111
0.00334068
0.00369847
0.0037154
0.00383473
0.00346954
0.00339678
0.000214047
0.00180875
0.00196488
0.00318548
0.00175893
0.00249128
0.00256541
0.00285979
0.00339449
0.00303285
0.00325232
0.00322249
0.00336172
0.00313758
0.00329968
0.00362846
0.00362611
0.00368957
0.00332803
0.00320917
0.000240726
0.00179951
0.00200046
0.00318058
0.00179424
0.0024549
0.00258622
0.00284603
0.00339906
0.00303441
0.0032341
0.0032434
0.00333721
0.00313699
0.00325808
0.00355098
0.00353314
0.00354726
0.00319014
0.0030297
0.000270532
0.00178723
0.0020365
0.0031756
0.00183079
0.00241766
0.00260598
0.00283472
0.00340085
0.00303902
0.00321347
0.00326361
0.003313
0.00312823
0.00321594
0.00346845
0.00343538
0.00340696
0.00305745
0.0028607
0.000303751
0.0017716
0.00207259
0.00317078
0.0018682
0.00238033
0.00262412
0.00282621
0.00339999
0.00304628
0.00319077
0.0032822
0.00328959
0.00311078
0.00317202
0.00338332
0.00333276
0.0032672
0.0029299
0.00270488
0.00034066
0.00175194
0.00210816
0.00316642
0.00190608
0.00234374
0.00264015
0.00282046
0.0033967
0.00305581
0.00316641
0.00329812
0.00326711
0.00308456
0.00312687
0.00329763
0.00322601
0.00312712
0.00280653
0.00256408
0.000381522
0.00172988
0.0021426
0.00316283
0.00194396
0.00230875
0.00265372
0.00281733
0.00339149
0.00306704
0.00314049
0.00331055
0.00324592
0.00304927
0.00307929
0.00321384
0.00311689
0.00298586
0.00268541
0.00243859
0.000426579
0.00170492
0.00217516
0.00316046
0.00198132
0.00227603
0.00266481
0.00281634
0.00338481
0.0030796
0.00311291
0.00331859
0.00322678
0.00300511
0.00302845
0.00313439
0.00300824
0.00284265
0.00256347
0.00232672
0.000476028
0.00167723
0.00220499
0.00315978
0.00201781
0.00224596
0.00267371
0.00281686
0.00337707
0.00309356
0.00308333
0.00332082
0.00321056
0.00295331
0.00297216
0.00306068
0.0029036
0.0026981
0.00243748
0.00222445
0.000530019
0.00164719
0.00223109
0.00316129
0.00205319
0.00221876
0.00268097
0.00281801
0.0033685
0.00310922
0.00305129
0.00331569
0.00319801
0.00289607
0.00290682
0.00299157
0.00280747
0.00255539
0.00230552
0.00212576
0.000588648
0.0016153
0.00225245
0.00316542
0.00208733
0.00219443
0.00268746
0.00281872
0.00335877
0.00312695
0.00301676
0.00330187
0.00318944
0.00283666
0.00282887
0.00292354
0.00272409
0.00241992
0.0021682
0.00202434
0.000651921
0.00158215
0.00226802
0.00317255
0.00212035
0.00217249
0.00269423
0.0028184
0.00334694
0.00314779
0.00298036
0.00327699
0.00318478
0.00277982
0.00273757
0.00285156
0.00265403
0.00229732
0.00202892
0.00191661
0.000719853
0.00154857
0.00227679
0.00318291
0.00215249
0.00215209
0.00270236
0.00281718
0.00333156
0.0031728
0.00294363
0.00323799
0.00318234
0.00273116
0.00263702
0.00276911
0.00259367
0.00219254
0.00189276
0.00180307
0.000792192
0.0015154
0.00227781
0.00319657
0.00218441
0.00213199
0.00271282
0.00281569
0.00331001
0.00320173
0.00290965
0.00318314
0.00317852
0.00269531
0.00253035
0.00267132
0.00253808
0.00210924
0.00176527
0.00168574
0.000868675
0.00148359
0.00227025
0.00321335
0.00221708
0.00211063
0.00272609
0.00281527
0.0032791
0.00323299
0.00288336
0.00311256
0.0031674
0.00267478
0.00242405
0.00255678
0.00247952
0.00204777
0.00165343
0.0015673
0.000948866
0.00145424
0.00225356
0.00323275
0.00225171
0.00208635
0.00274148
0.00281887
0.00323737
0.00326317
0.00287028
0.003029
0.0031413
0.00266816
0.00232996
0.00243014
0.0024083
0.00200246
0.00156503
0.00145307
0.00103217
0.00142853
0.00222749
0.00325373
0.00229016
0.00205769
0.00275728
0.00283019
0.00318503
0.00328633
0.00287419
0.00293874
0.00309415
0.00267013
0.002258
0.00229894
0.00231855
0.00196376
0.00150355
0.00135138
0.00111779
0.00140779
0.00219216
0.00327479
0.00233435
0.00202386
0.00277067
0.00285274
0.00312322
0.00329472
0.00289561
0.00285131
0.00302286
0.00267321
0.00221284
0.00217305
0.00221206
0.00192019
0.00146393
0.0012702
0.00120478
0.00139337
0.0021481
0.00329394
0.0023861
0.00198495
0.00277735
0.00288943
0.00305639
0.00328082
0.00293162
0.00277794
0.00292882
0.00267262
0.00219177
0.00206475
0.00209656
0.00186382
0.00143687
0.00121241
0.00129208
0.00138658
0.00209626
0.00330856
0.00244743
0.00194239
0.00277174
0.00294034
0.00299273
0.00324063
0.00297455
0.00272759
0.00281901
0.00264412
0.00218842
0.00198401
0.00198143
0.00179362
0.00141239
0.00117502
0.00137854
0.00138871
0.00203817
0.00331543
0.00251999
0.00189903
0.00274816
0.00300372
0.0029417
0.00317426
0.00301276
0.00270468
0.00270594
0.00258731
0.00219032
0.00193302
0.00187818
0.00171383
0.00138264
0.00115314
0.00146296
0.00140071
0.00197588
0.00331126
0.00260408
0.00185966
0.00270272
0.00307512
0.00291147
0.00308501
0.00303334
0.00270904
0.00260438
0.00250536
0.00218114
0.0019056
0.00179954
0.00163428
0.00134291
0.00113936
0.00154417
0.00142323
0.00191206
0.00329263
0.00269844
0.00183053
0.00263394
0.00314346
0.00290773
0.0029821
0.00302657
0.002735
0.00252711
0.00240388
0.0021483
0.0018928
0.00175174
0.00156825
0.00129538
0.00112381
0.00162101
0.00145643
0.00184993
0.00325694
0.00280061
0.00181754
0.00254237
0.00319469
0.00293225
0.00287823
0.00298865
0.00277105
0.00248115
0.00229402
0.00208762
0.00187988
0.00172947
0.00153032
0.00125361
0.00109905
0.00169263
0.00150006
0.00179282
0.0032029
0.00290619
0.001826
0.00243047
0.0032196
0.00298319
0.00278668
0.00292004
0.0028033
0.00246834
0.00219399
0.00200331
0.00185196
0.00172269
0.00152567
0.00123546
0.00107111
0.00175836
0.0015534
0.00174408
0.00312971
0.00300728
0.00186137
0.00230589
0.00321133
0.0030541
0.00271874
0.00282562
0.00281879
0.00248577
0.00212163
0.0019035
0.00180037
0.00171899
0.00154562
0.00125489
0.00105952
0.00181771
0.00161501
0.00170677
0.00303828
0.00309812
0.00192653
0.00217966
0.00316415
0.0031326
0.00268201
0.00271454
0.00281019
0.00253313
0.00209027
0.00180158
0.00172203
0.00170597
0.00158113
0.00131068
0.00108288
0.00187065
0.00168259
0.00168331
0.00293196
0.00317187
0.00201972
0.00206283
0.00307705
0.00320349
0.00267934
0.00259879
0.00276752
0.00258403
0.002101
0.00171925
0.00162292
0.00167044
0.00162169
0.0013935
0.00115068
0.00191715
0.00175429
0.00167574
0.00281523
0.00322238
0.00213674
0.00196641
0.00295363
0.00325065
0.00270897
0.00249221
0.00269142
0.00262623
0.00214871
0.00167592
0.00151676
0.00160171
0.00165157
0.00149599
0.00125991
0.00195761
0.0018347
0.00168503
0.00269405
0.00324516
0.00227028
0.00189839
0.00280189
0.00326535
0.00276669
0.00240903
0.0025869
0.00264524
0.00222652
0.00168005
0.00142562
0.00150604
0.00165022
0.00160382
0.00140547
0.00198754
0.0019035
0.00171103
0.00257498
0.00323774
0.00240915
0.00186556
0.00263531
0.00324178
0.00284028
0.0023583
0.002462
0.00262734
0.00231911
0.00173391
0.00137167
0.0014007
0.00160626
0.00169205
0.00157486
0.00201846
0.00196868
0.00175281
0.002464
0.00319946
0.00254232
0.0018711
0.00246918
0.00317573
0.00291263
0.00234495
0.00233233
0.00256758
0.00240415
0.00183385
0.00136901
0.00130904
0.00152968
0.00173471
0.0017412
0.00204586
0.0020285
0.00180788
0.00236637
0.00313226
0.00265477
0.00191295
0.00231768
0.00306812
0.0029686
0.00237174
0.00221776
0.00247007
0.00245909
0.00196965
0.00142684
0.00125361
0.00143995
0.00172152
0.00186674
0.00207067
0.00208186
0.00187243
0.00228607
0.00304075
0.00274351
0.00198572
0.00219191
0.00292835
0.00299554
0.00243335
0.00214204
0.00234554
0.0024669
0.00211524
0.00154546
0.00125214
0.00135954
0.00166658
0.0019233
0.0020939
0.00212815
0.00194213
0.0022252
0.00293281
0.00280319
0.00208076
0.00209926
0.00276961
0.00298599
0.00250869
0.00211287
0.00221707
0.00242314
0.00223846
0.0017155
0.00131939
0.00131321
0.00158819
0.00191119
0.00211644
0.00216718
0.00201266
0.00218436
0.00281616
0.00283164
0.00218479
0.00204417
0.0026058
0.00293724
0.0025845
0.00212725
0.00211376
0.00234046
0.0023121
0.0019034
0.0014552
0.00132407
0.00151703
0.0018458
0.00213892
0.00219932
0.00207992
0.00216312
0.00270444
0.00282969
0.00228486
0.00202586
0.00245382
0.00285268
0.0026435
0.00217989
0.00204979
0.00223988
0.00232885
0.00206854
0.0016437
0.00140433
0.00148226
0.00176183
0.00216164
0.00222527
0.00214071
0.00215989
0.00260041
0.00279975
0.00237046
0.00204016
0.00232894
0.00274144
0.00267115
0.00225758
0.00203236
0.00214785
0.0023006
0.00218178
0.0018408
0.00154813
0.00150592
0.00169788
0.00218459
0.00224608
0.00219301
0.00217154
0.00250934
0.00274652
0.00243695
0.00207992
0.00223314
0.00261792
0.00266405
0.00233674
0.00205895
0.00208351
0.00224419
0.00223828
0.00200551
0.0017279
0.0015933
0.00168173
0.00220751
0.00226312
0.00223554
0.00219344
0.00243515
0.0026778
0.00247998
0.00213551
0.00217025
0.00249461
0.00262534
0.00240069
0.00211897
0.00206037
0.00218426
0.00224828
0.00211831
0.00189876
0.00173274
0.00172668
0.00222995
0.00227425
0.00226825
0.0022207
0.00237922
0.0026024
0.00249856
0.00219355
0.00214019
0.00238425
0.00256066
0.00244041
0.00219165
0.00207565
0.0021434
0.00222877
0.00218139
0.00203347
0.0018868
0.00182807
0.00225162
0.00228711
0.00229204
0.00224854
0.00234112
0.00252829
0.00249426
0.00224519
0.00214008
0.00229996
0.00248084
0.0024495
0.00226104
0.00212037
0.00213309
0.00220667
0.00220574
0.0021235
0.00202315
0.00195937
0.00227194
0.00229873
0.0023075
0.00227346
0.00231907
0.0024617
0.0024715
0.00228502
0.00215647
0.00224333
0.00240322
0.00243168
0.00231347
0.00218103
0.00215061
0.00220037
0.00221504
0.0021765
0.00212471
0.00208672
0.00229032
0.00230952
0.00231813
0.00229346
0.00230927
0.00240692
0.00243722
0.00230922
0.0021818
0.00221139
0.0023388
0.00239704
0.00234034
0.0022417
0.00219016
0.00221484
0.00223134
0.00220894
0.00219178
0.00218749
0.00230636
0.00231965
0.00232519
0.00230746
0.00230716
0.00236555
0.00239886
0.00231788
0.00220823
0.00220045
0.00229052
0.00235846
0.00234598
0.00228899
0.00224108
0.00224606
0.00226263
0.0022441
0.00223667
0.00225661
0.00231981
0.00232892
0.00233007
0.00231576
0.00230829
0.00233749
0.00236272
0.00231393
0.00222887
0.00220426
0.00226002
0.00232372
0.00233809
0.00231824
0.00229076
0.00228839
0.0023053
0.00229243
0.00228006
0.00230409
0.00233059
0.00233686
0.00233393
0.00231964
0.00230933
0.00231983
0.00233262
0.0023022
0.00224112
0.00221385
0.00224563
0.00229822
0.00232506
0.00233241
0.00233128
0.00233422
0.00235353
0.00235102
0.00233339
0.00234563
0.00233905
0.0023431
0.00233722
0.00232104
0.00230894
0.00230892
0.00231034
0.0022879
0.00224588
0.0022233
0.00224263
0.00228454
0.00231471
0.00233657
0.00235956
0.00237716
0.00240111
0.00241175
0.00239626
0.00239307
0.00234551
0.00234748
0.0023398
0.00232139
0.002307
0.00230133
0.00229517
0.00227543
0.00224546
0.00223017
0.00224475
0.00227975
0.00231163
0.00233881
0.00237688
0.00241265
0.00244417
0.00246688
0.0024607
0.00244809
0.00235025
0.00235013
0.00234139
0.00232148
0.00230415
0.00229509
0.00228531
0.0022666
0.00224311
0.00223385
0.00224845
0.00228033
0.00231435
0.00234509
0.0023883
0.00243874
0.00248068
0.00251246
0.00251864
0.00250492
0.00235349
0.00235133
0.0023418
0.00232149
0.00230131
0.00228959
0.00227836
0.00226075
0.00224137
0.00223567
0.0022518
0.00228316
0.00231949
0.00235479
0.00239928
0.00245684
0.00250951
0.00254908
0.00256618
0.00255724
0.00235544
0.00235147
0.00234102
0.00232125
0.0022991
0.00228468
0.0022729
0.00225693
0.0022407
0.00223723
0.00225453
0.00228684
0.00232504
0.0023644
0.00240989
0.0024689
0.00252964
0.00257749
0.00260418
0.00260293
0.00235626
0.00235087
0.0023394
0.00232052
0.00229758
0.00228057
0.00226815
0.00225417
0.00224084
0.00223891
0.00225671
0.00229062
0.00233153
0.00237377
0.0024188
0.00247429
0.00253739
0.00259351
0.00263141
0.00264149
0.00235622
0.00234977
0.00233725
0.00231923
0.00229646
0.00227729
0.00226392
0.00225186
0.00224142
0.00224054
0.00225771
0.00229244
0.00233727
0.00238544
0.00243474
0.00248771
0.0025447
0.00259697
0.00263443
0.00264883
0.00235547
0.0023485
0.00233502
0.00231762
0.00229576
0.00227501
0.00226023
0.00224972
0.00224223
0.00224245
0.00225827
0.0022919
0.00233778
0.00238844
0.00243997
0.00249315
0.00254999
0.00260573
0.00265018
0.0026728
0.00235377
0.00234589
0.00233149
0.00231382
0.00229236
0.00227032
0.00225347
0.00224291
0.00223739
0.00223936
0.00225515
0.00228785
0.00233381
0.0023858
0.00243876
0.00249152
0.00254518
0.00259741
0.00264061
0.00266498
0.0127086
0.00835829
0.00139057
-0.00402165
-0.00558308
-0.00457542
-0.00305606
-0.00198448
-0.00149519
-0.0012812
-0.0010713
-0.000868795
-0.000713524
-0.00054128
-0.000345738
-0.000180943
-2.65097e-05
0.000145417
0.000320227
0.000502002
0.000688803
0.000858011
0.0010022
0.00114114
0.00129706
0.00145358
0.00157825
0.0016793
0.00180773
0.00197518
0.0021227
0.00223149
0.00236177
0.00253826
0.00271264
0.00287296
0.00305052
0.00322041
0.00336144
0.00352193
0.0037072
0.00387764
0.00403494
0.00420909
0.0044161
0.00463227
0.00481782
0.00500479
0.00523943
0.00548386
0.00570387
0.00593617
0.00619537
0.00644972
0.00670119
0.00696847
0.0072478
0.00752731
0.00781412
0.00811064
0.00841777
0.00873267
0.00905118
0.00937178
0.00969523
0.0100236
0.0103543
0.0106935
0.0110399
0.0113937
0.011753
0.0121186
0.012493
0.0128718
0.0132601
0.0136522
0.0140541
0.0144615
0.0148757
0.0152998
0.0157267
0.0161676
0.0166094
0.0170648
0.0175251
0.0179927
0.0184735
0.0189547
0.0194528
0.0199541
0.0204641
0.0209889
0.0215135
0.0220548
0.0226028
0.0231546
0.0237232
0.0242846
0.0248506
0.0254139
0.0120441
0.00820768
0.0014745
-0.00387567
-0.00548948
-0.00452978
-0.00302724
-0.00196337
-0.00147965
-0.00126944
-0.00106172
-0.000860654
-0.000706661
-0.000535378
-0.000340456
-0.000176243
-2.23486e-05
0.000149182
0.000323632
0.000505094
0.000691667
0.000860669
0.00100463
0.00114336
0.00129912
0.00145553
0.00158008
0.00168094
0.00180918
0.00197655
0.00212403
0.00223269
0.00236283
0.00253925
0.00271359
0.00287383
0.00305134
0.00322121
0.00336217
0.00352257
0.00370782
0.00387823
0.00403549
0.00420957
0.00441653
0.0046327
0.00481822
0.00500512
0.00523972
0.00548414
0.00570413
0.00593639
0.00619556
0.0064499
0.00670135
0.00696861
0.00724793
0.00752742
0.00781421
0.00811072
0.00841784
0.00873273
0.00905123
0.00937183
0.00969527
0.0100236
0.0103543
0.0106935
0.0110399
0.0113937
0.011753
0.0121186
0.012493
0.0128718
0.0132601
0.0136522
0.0140541
0.0144615
0.0148757
0.0152998
0.0157267
0.0161676
0.0166094
0.0170648
0.0175251
0.0179927
0.0184735
0.0189547
0.0194528
0.0199541
0.0204641
0.0209889
0.0215135
0.0220548
0.0226028
0.0231546
0.0237232
0.0242846
0.0248506
0.0254139
0.0113831
0.00805189
0.00166293
-0.00358555
-0.00531786
-0.0044664
-0.00300009
-0.00194362
-0.00146261
-0.00125509
-0.0010499
-0.000850975
-0.000698758
-0.000528827
-0.000334892
-0.000171503
-1.82381e-05
0.000152855
0.000326898
0.000508017
0.000694352
0.000863146
0.00100689
0.00114539
0.001301
0.00145732
0.00158176
0.00168245
0.00181052
0.00197782
0.00212524
0.00223377
0.00236379
0.00254018
0.00271446
0.0028746
0.00305208
0.00322195
0.00336282
0.00352315
0.00370839
0.00387877
0.00403596
0.00421
0.00441694
0.0046331
0.00481858
0.0050054
0.00523999
0.00548442
0.00570436
0.00593658
0.00619575
0.00645007
0.00670149
0.00696873
0.00724804
0.00752752
0.0078143
0.0081108
0.0084179
0.00873279
0.00905129
0.00937187
0.00969531
0.0100237
0.0103544
0.0106935
0.0110399
0.0113937
0.011753
0.0121186
0.0124931
0.0128718
0.0132601
0.0136522
0.0140541
0.0144615
0.0148757
0.0152998
0.0157267
0.0161676
0.0166094
0.0170648
0.0175251
0.0179927
0.0184735
0.0189547
0.0194528
0.0199541
0.0204641
0.0209889
0.0215135
0.0220548
0.0226028
0.0231546
0.0237232
0.0242846
0.0248506
0.025414
0.0107662
0.00790478
0.00190881
-0.00321795
-0.00508614
-0.00437985
-0.00296438
-0.00191714
-0.0014387
-0.00123468
-0.00103365
-0.000838108
-0.000688076
-0.000519798
-0.000327346
-0.000165158
-1.27343e-05
0.000157703
0.000331091
0.000511617
0.000697516
0.00086602
0.00100954
0.00114779
0.00130316
0.00145934
0.00158371
0.0016843
0.00181219
0.00197932
0.00212658
0.00223498
0.00236492
0.00254128
0.00271547
0.00287548
0.00305291
0.00322278
0.00336356
0.00352382
0.00370903
0.00387937
0.00403651
0.0042105
0.00441741
0.00463356
0.004819
0.00500575
0.00524032
0.00548475
0.00570464
0.00593681
0.00619598
0.00645028
0.00670166
0.00696888
0.00724819
0.00752765
0.0078144
0.00811089
0.00841798
0.00873286
0.00905136
0.00937193
0.00969536
0.0100237
0.0103544
0.0106935
0.0110399
0.0113938
0.011753
0.0121186
0.0124931
0.0128718
0.0132601
0.0136522
0.0140541
0.0144615
0.0148757
0.0152998
0.0157267
0.0161676
0.0166094
0.0170648
0.0175252
0.0179927
0.0184735
0.0189547
0.0194528
0.0199541
0.0204641
0.0209889
0.0215135
0.0220548
0.0226028
0.0231546
0.0237232
0.0242846
0.0248506
0.0254142
0.0101709
0.00773486
0.00215711
-0.00283317
-0.00483431
-0.00428375
-0.00292553
-0.00188662
-0.00140875
-0.00120791
-0.00101225
-0.000821226
-0.000673745
-0.000507449
-0.000317031
-0.000156381
-4.94844e-06
0.000164621
0.000337053
0.000516582
0.000701628
0.000869634
0.00101293
0.0011509
0.00130584
0.00146175
0.0015862
0.00168691
0.0018146
0.00198129
0.00212825
0.00223655
0.00236648
0.00254276
0.00271678
0.00287661
0.00305397
0.00322385
0.00336457
0.00352472
0.00370984
0.00388011
0.00403724
0.00421121
0.00441806
0.00463417
0.00481957
0.00500626
0.0052408
0.0054852
0.00570503
0.00593716
0.00619631
0.00645057
0.0067019
0.0069691
0.00724839
0.00752782
0.00781456
0.00811102
0.0084181
0.00873297
0.00905146
0.00937202
0.00969543
0.0100238
0.0103545
0.0106936
0.01104
0.0113938
0.011753
0.0121187
0.0124931
0.0128719
0.0132601
0.0136523
0.0140541
0.0144615
0.0148757
0.0152998
0.0157267
0.0161676
0.0166094
0.0170648
0.0175252
0.0179927
0.0184735
0.0189547
0.0194528
0.0199541
0.0204641
0.0209889
0.0215135
0.0220548
0.0226028
0.0231546
0.0237232
0.0242846
0.0248506
0.0254144
0.0095875
0.00752603
0.0023911
-0.00244471
-0.0045712
-0.00418215
-0.00288663
-0.00185522
-0.00137563
-0.00117726
-0.000987546
-0.000801652
-0.00065679
-0.000492531
-0.000304372
-0.000145304
5.19911e-06
0.00017385
0.000345149
0.000523312
0.000707021
0.00087421
0.00101724
0.00115488
0.00130913
0.00146454
0.00158928
0.00169052
0.00181803
0.00198397
0.0021304
0.00223869
0.00236866
0.00254478
0.00271853
0.0028781
0.00305536
0.00322527
0.00336599
0.003526
0.0037109
0.00388108
0.00403826
0.00421224
0.00441898
0.004635
0.00482037
0.00500703
0.00524152
0.00548585
0.00570562
0.00593771
0.00619681
0.006451
0.00670227
0.00696944
0.0072487
0.00752809
0.00781479
0.00811123
0.00841828
0.00873314
0.00905161
0.00937216
0.00969555
0.0100239
0.0103545
0.0106937
0.01104
0.0113938
0.0117531
0.0121187
0.0124931
0.0128719
0.0132601
0.0136523
0.0140541
0.0144615
0.0148757
0.0152998
0.0157267
0.0161676
0.0166094
0.0170648
0.0175252
0.0179927
0.0184735
0.0189547
0.0194528
0.0199541
0.0204641
0.0209889
0.0215135
0.0220548
0.0226028
0.0231546
0.0237232
0.0242846
0.0248506
0.0254147
0.00901773
0.00728265
0.00261098
-0.00205212
-0.00429628
-0.00407443
-0.00284793
-0.00182397
-0.00134069
-0.00114419
-0.00096086
-0.000780569
-0.000638463
-0.000476275
-0.000290406
-0.000132778
1.7029e-05
0.000184915
0.000355117
0.000531743
0.000713772
0.000879864
0.00102253
0.00115977
0.00131303
0.00146767
0.00159286
0.0016951
0.00182257
0.00198741
0.00213316
0.00224157
0.00237166
0.00254746
0.00272079
0.00288003
0.0030571
0.00322712
0.00336799
0.00352781
0.00371232
0.00388235
0.00403969
0.00421373
0.00442026
0.00463611
0.00482151
0.00500819
0.00524258
0.00548678
0.0057065
0.00593855
0.00619756
0.00645164
0.00670284
0.00696996
0.00724916
0.0075285
0.00781516
0.00811155
0.00841856
0.0087334
0.00905185
0.00937237
0.00969573
0.010024
0.0103547
0.0106938
0.0110401
0.0113939
0.0117532
0.0121188
0.0124932
0.0128719
0.0132602
0.0136523
0.0140541
0.0144615
0.0148758
0.0152998
0.0157267
0.0161676
0.0166094
0.0170648
0.0175252
0.0179927
0.0184735
0.0189547
0.0194528
0.0199541
0.0204641
0.0209889
0.0215135
0.0220548
0.0226028
0.0231546
0.0237232
0.0242846
0.0248507
0.025415
0.00847202
0.0070157
0.00281663
-0.00165728
-0.00401023
-0.00396003
-0.00280934
-0.00179351
-0.00130459
-0.00110918
-0.000932543
-0.000758323
-0.000619216
-0.000459199
-0.000275692
-0.000119464
2.97994e-05
0.000197089
0.00036632
0.00054142
0.00072165
0.000886495
0.00102871
0.00116545
0.00131748
0.00147109
0.00159684
0.00170047
0.00182801
0.00199152
0.00213649
0.00224525
0.00237557
0.00255091
0.00272365
0.0028824
0.00305919
0.00322939
0.00337062
0.00353027
0.0037142
0.00388401
0.00404163
0.00421579
0.00442199
0.00463756
0.00482306
0.00500984
0.00524404
0.00548805
0.00570775
0.00593977
0.00619864
0.00645257
0.00670369
0.00697073
0.00724985
0.0075291
0.00781569
0.00811202
0.00841898
0.00873377
0.0090522
0.00937269
0.00969601
0.0100243
0.0103549
0.010694
0.0110403
0.0113941
0.0117533
0.0121189
0.0124933
0.012872
0.0132602
0.0136524
0.0140542
0.0144616
0.0148758
0.0152999
0.0157268
0.0161676
0.0166094
0.0170648
0.0175252
0.0179927
0.0184735
0.0189547
0.0194528
0.0199541
0.0204641
0.0209889
0.0215135
0.0220548
0.0226028
0.0231547
0.0237232
0.0242847
0.0248508
0.0254154
0.0079616
0.00673272
0.00300177
-0.0012656
-0.003714
-0.00383753
-0.00277016
-0.00176428
-0.00126781
-0.00107235
-0.000902617
-0.000734961
-0.000599088
-0.000441324
-0.0002603
-0.000105584
4.31242e-05
0.000209877
0.000378225
0.000551871
0.000730311
0.000893865
0.00103558
0.00117174
0.00132238
0.00147481
0.00160115
0.00170638
0.00183406
0.00199608
0.00214023
0.00224961
0.00238033
0.00255514
0.00272712
0.00288523
0.00306156
0.00323198
0.00337379
0.00353334
0.00371656
0.0038861
0.00404411
0.00421846
0.00442423
0.00463941
0.00482506
0.00501201
0.00524595
0.00548968
0.0057094
0.00594143
0.0062001
0.00645383
0.00670486
0.00697181
0.0072508
0.00752995
0.00781644
0.00811267
0.00841954
0.00873429
0.00905269
0.00937314
0.0096964
0.0100246
0.0103552
0.0106942
0.0110405
0.0113943
0.0117535
0.012119
0.0124934
0.0128721
0.0132603
0.0136524
0.0140542
0.0144616
0.0148758
0.0152999
0.0157268
0.0161676
0.0166094
0.0170648
0.0175252
0.0179927
0.0184735
0.0189547
0.0194528
0.0199541
0.0204641
0.0209889
0.0215135
0.0220548
0.0226028
0.0231547
0.0237232
0.0242847
0.0248509
0.0254158
0.00749338
0.00643786
0.00315904
-0.000881233
-0.0034068
-0.00370448
-0.00272933
-0.00173672
-0.00123096
-0.00103384
-0.000871026
-0.000710421
-0.000577991
-0.000422515
-0.000244106
-9.11051e-05
5.69131e-05
0.000223079
0.000390563
0.00056281
0.000739496
0.000901746
0.00104292
0.00117845
0.00132764
0.00147882
0.00160575
0.00171267
0.00184053
0.00200092
0.00214422
0.00225442
0.00238576
0.00256004
0.00273116
0.00288847
0.00306416
0.0032348
0.00337737
0.0035369
0.00371935
0.00388862
0.00404713
0.00422171
0.00442694
0.00464163
0.00482752
0.00501472
0.0052483
0.00549166
0.00571144
0.00594351
0.00620194
0.00645546
0.0067064
0.00697323
0.00725206
0.00753107
0.00781744
0.00811353
0.00842028
0.00873495
0.00905331
0.00937372
0.00969692
0.0100251
0.0103556
0.0106946
0.0110409
0.0113946
0.0117537
0.0121192
0.0124936
0.0128723
0.0132605
0.0136526
0.0140543
0.0144617
0.0148759
0.0153
0.0157268
0.0161677
0.0166095
0.0170649
0.0175252
0.0179927
0.0184735
0.0189547
0.0194528
0.0199541
0.0204641
0.0209889
0.0215135
0.0220548
0.0226028
0.0231547
0.0237232
0.0242848
0.024851
0.0254163
0.00706933
0.00613551
0.00328437
-0.000506299
-0.00308778
-0.00355886
-0.00268595
-0.00171134
-0.00119476
-0.00099377
-0.000837561
-0.000684494
-0.000555769
-0.000402619
-0.000226953
-7.59073e-05
7.12199e-05
0.000236689
0.000403272
0.000574135
0.000749079
0.000910009
0.00105061
0.00118552
0.00133323
0.0014831
0.0016106
0.00171928
0.00184733
0.00200601
0.0021484
0.00225951
0.00239163
0.00256546
0.00273569
0.00289208
0.00306699
0.00323779
0.0033812
0.0035408
0.00372248
0.00389151
0.00405061
0.00422547
0.00443006
0.00464418
0.00483038
0.00501791
0.00525105
0.00549394
0.00571381
0.00594595
0.00620412
0.0064574
0.00670826
0.00697497
0.00725362
0.00753248
0.00781871
0.00811462
0.00842119
0.00873575
0.00905406
0.00937443
0.00969755
0.0100256
0.0103561
0.0106951
0.0110413
0.0113949
0.011754
0.0121195
0.0124939
0.0128725
0.0132607
0.0136527
0.0140545