/*--------------------------------*- C++ -*----------------------------------*\
| =========                 |                                                 |
| \\      /  F ield         | OpenFOAM: The Open Source CFD Toolbox           |
|  \\    /   O peration     | Version:  2106                                  |
|   \\  /    A nd           | Website:  www.openfoam.com                      |
|    \\/     M anipulation  |                                                 |
\*---------------------------------------------------------------------------*/
FoamFile
{
    version     2.0;
    format      ascii;
    arch        "LSB;label=32;scalar=64";
    class       volVectorField;
    location    "0.445";
    object      U;
}
// * * * * * * * * * * * * * * * * * * * * * * * * * * * * * * * * * * * * * //

dimensions      [0 1 -1 0 0 0 0];

internalField   nonuniform List<vector> 
9600
(
(0.844588 -0.00133705 0)
(1.15035 0.00190597 0)
(0.857951 -0.0110242 0)
(1.1645 0.00297952 0)
(0.900192 -0.00730088 0)
(1.13078 0.0121836 0)
(0.86918 -0.000786836 0)
(1.13466 0.00315603 0)
(0.894571 -0.00759839 0)
(1.14605 -0.00418573 0)
(0.914127 -0.00698872 0)
(1.15756 -0.00543906 0)
(0.94523 -0.00362981 0)
(1.17564 -0.00559356 0)
(0.941343 0.00654869 0)
(1.18406 -0.000570057 0)
(0.910179 0.00833588 0)
(1.18024 0.0073797 0)
(0.894283 0.00768529 0)
(1.16262 0.00559988 0)
(0.857325 -0.0013744 0)
(1.13681 0.00196027 0)
(0.874516 -0.0113147 0)
(1.15407 0.00272419 0)
(0.919256 -0.00715562 0)
(1.1219 0.0125924 0)
(0.900264 -0.000953129 0)
(1.11763 0.00302834 0)
(0.928502 -0.00792473 0)
(1.12119 -0.00425076 0)
(0.948302 -0.00737122 0)
(1.12777 -0.00575672 0)
(0.981471 -0.00427241 0)
(1.13998 -0.00524608 0)
(0.986765 0.00600032 0)
(1.13342 0.000630672 0)
(0.977697 0.00862218 0)
(1.10115 0.00738879 0)
(0.999477 0.00947759 0)
(1.04454 0.00439374 0)
(0.880119 -0.00139819 0)
(1.11257 0.00196545 0)
(0.89862 -0.0116112 0)
(1.13205 0.0024637 0)
(0.946745 -0.00695503 0)
(1.10407 0.0129171 0)
(0.942971 -0.00099523 0)
(1.09014 0.0028369 0)
(0.96657 -0.00804418 0)
(1.08273 -0.00440484 0)
(0.985747 -0.00759205 0)
(1.08557 -0.00623401 0)
(1.01992 -0.00458738 0)
(1.09683 -0.00530808 0)
(1.03322 0.00607745 0)
(1.09087 0.000604147 0)
(1.03081 0.00905595 0)
(1.06222 0.00725584 0)
(1.04101 0.010303 0)
(1.03441 0.00526089 0)
(0.908462 -0.00139083 0)
(1.0827 0.00193168 0)
(0.924251 -0.0118622 0)
(1.10204 0.00215457 0)
(0.97242 -0.00677501 0)
(1.08213 0.0129499 0)
(0.980353 -0.000857421 0)
(1.06209 0.0026599 0)
(0.992283 -0.00793042 0)
(1.04615 -0.00461103 0)
(1.0064 -0.00767069 0)
(1.04959 -0.00675713 0)
(1.03674 -0.00483875 0)
(1.06579 -0.00557978 0)
(1.05426 0.00613186 0)
(1.07099 0.00064661 0)
(1.05197 0.00965134 0)
(1.05641 0.00722154 0)
(1.05158 0.0107314 0)
(1.04351 0.0064491 0)
(0.937085 -0.00135414 0)
(1.05349 0.00189259 0)
(0.94634 -0.0120664 0)
(1.07048 0.00178099 0)
(0.989848 -0.00665864 0)
(1.06169 0.0128118 0)
(1.00485 -0.000611044 0)
(1.04084 0.00258306 0)
(1.0033 -0.00767297 0)
(1.02062 -0.00478057 0)
(1.01023 -0.00773333 0)
(1.02574 -0.00725576 0)
(1.03489 -0.00518856 0)
(1.04578 -0.00595817 0)
(1.05569 0.00590174 0)
(1.06053 0.000666982 0)
(1.05603 0.00991168 0)
(1.05606 0.00729297 0)
(1.05406 0.0111081 0)
(1.04704 0.007496 0)
(0.961441 -0.00129996 0)
(1.03019 0.00187766 0)
(0.962472 -0.0122227 0)
(1.04332 0.00140616 0)
(0.997913 -0.00662179 0)
(1.04578 0.0125868 0)
(1.017 -0.000333255 0)
(1.02777 0.0026332 0)
(1.00545 -0.00733455 0)
(1.0063 -0.00487895 0)
(1.00632 -0.0077903 0)
(1.01118 -0.00770076 0)
(1.02541 -0.00557535 0)
(1.03109 -0.0064366 0)
(1.0481 0.00545999 0)
(1.05124 0.000631119 0)
(1.05261 0.00981327 0)
(1.0533 0.007493 0)
(1.05245 0.0112992 0)
(1.04618 0.00847599 0)
(0.979063 -0.00124475 0)
(1.01507 0.0019019 0)
(0.973065 -0.0123229 0)
(1.02348 0.00108005 0)
(0.999277 -0.00666434 0)
(1.0343 0.0122988 0)
(1.02074 -6.469e-05 0)
(1.02046 0.00276939 0)
(1.00468 -0.00695242 0)
(0.999587 -0.00491625 0)
(1.00156 -0.00780734 0)
(1.00231 -0.0080723 0)
(1.01521 -0.00593169 0)
(1.01909 -0.00696625 0)
(1.03749 0.0049215 0)
(1.04137 0.000469351 0)
(1.04555 0.00954019 0)
(1.0477 0.00770978 0)
(1.0477 0.0113105 0)
(1.0423 0.00945746 0)
(0.98988 -0.00120187 0)
(1.00733 0.00195924 0)
(0.97996 -0.0123617 0)
(1.01073 0.000816706 0)
(0.997522 -0.00676082 0)
(1.02561 0.0119656 0)
(1.01981 0.00017708 0)
(1.01605 0.00292758 0)
(1.00377 -0.0065571 0)
(0.99716 -0.00491166 0)
(0.998419 -0.00776434 0)
(0.997007 -0.00835522 0)
(1.00675 -0.00621459 0)
(1.00912 -0.00748022 0)
(1.02641 0.00431999 0)
(1.03099 0.000231623 0)
(1.03645 0.00915369 0)
(1.03977 0.00788579 0)
(1.0405 0.0112213 0)
(1.036 0.0104339 0)
(0.995452 -0.00117663 0)
(1.00446 0.00202839 0)
(0.984886 -0.012339 0)
(1.00314 0.000614224 0)
(0.99518 -0.00686964 0)
(1.01821 0.011607 0)
(1.01662 0.000383518 0)
(1.01271 0.00305555 0)
(1.00324 -0.00617572 0)
(0.996815 -0.00488564 0)
(0.996935 -0.00765742 0)
(0.994058 -0.00854405 0)
(1.00044 -0.00639749 0)
(1.00107 -0.00792217 0)
(1.01589 0.00370426 0)
(1.02056 -7.66629e-06 0)
(1.02615 0.00865673 0)
(1.03017 0.00804857 0)
(1.03149 0.0110679 0)
(1.02792 0.0113396 0)
(0.997808 -0.00116677 0)
(1.00394 0.00208625 0)
(0.988772 -0.0122594 0)
(0.998631 0.000465607 0)
(0.99334 -0.00695463 0)
(1.01145 0.0112414 0)
(1.0126 0.000551273 0)
(1.0097 0.00312435 0)
(1.00283 -0.00582758 0)
(0.997247 -0.00485553 0)
(0.996485 -0.00749518 0)
(0.992674 -0.00864432 0)
(0.996095 -0.00647071 0)
(0.99499 -0.00824443 0)
(1.00645 0.00312787 0)
(1.01077 -0.000201875 0)
(1.01552 0.00809199 0)
(1.0198 0.00822315 0)
(1.02159 0.0108564 0)
(1.01896 0.0121058 0)
(0.998597 -0.00116637 0)
(1.00414 0.00211833 0)
(0.991873 -0.0121306 0)
(0.995797 0.000360695 0)
(0.992177 -0.0069946 0)
(1.00538 0.0108823 0)
(1.00866 0.000681102 0)
(1.00697 0.00312445 0)
(1.00236 -0.00551957 0)
(0.997773 -0.00483454 0)
(0.996502 -0.00729397 0)
(0.992268 -0.0086716 0)
(0.993334 -0.00644237 0)
(0.990849 -0.00842267 0)
(0.998572 0.00262609 0)
(1.00232 -0.000315178 0)
(1.00562 0.00751513 0)
(1.00981 0.00841027 0)
(1.01203 0.0105965 0)
(1.01026 0.0126917 0)
(0.998798 -0.00116979 0)
(1.00432 0.0021211 0)
(0.994184 -0.0119612 0)
(0.993914 0.000288264 0)
(0.991538 -0.00698216 0)
(1.00038 0.0105348 0)
(1.00536 0.000777787 0)
(1.00469 0.0030594 0)
(1.00181 -0.00524676 0)
(0.998136 -0.00483098 0)
(0.996638 -0.00707087 0)
(0.992385 -0.00864619 0)
(0.991762 -0.00633554 0)
(0.98841 -0.00845543 0)
(0.99263 0.00220981 0)
(0.995764 -0.00032179 0)
(0.99747 0.00695789 0)
(1.0013 0.0086025 0)
(1.00391 0.0103162 0)
(1.00285 0.0130839 0)
(0.998847 -0.00117302 0)
(1.00432 0.0020982 0)
(0.995728 -0.0117596 0)
(0.992679 0.000237027 0)
(0.991244 -0.00692025 0)
(0.996736 0.010196 0)
(1.00296 0.000849547 0)
(1.00301 0.00294035 0)
(1.00129 -0.00499857 0)
(0.998316 -0.00484676 0)
(0.996742 -0.00683738 0)
(0.992703 -0.00858702 0)
(0.990992 -0.00617822 0)
(0.987255 -0.00835686 0)
(0.988694 0.00186789 0)
(0.991273 -0.00022561 0)
(0.99164 0.00643848 0)
(0.994954 0.00878802 0)
(0.99791 0.0100502 0)
(0.997372 0.0132851 0)
(0.998878 -0.00117359 0)
(1.0042 0.00205533 0)
(0.996636 -0.011533 0)
(0.991942 0.000196452 0)
(0.991169 -0.0068175 0)
(0.994438 0.00985838 0)
(1.00142 0.000906653 0)
(1.00193 0.00278029 0)
(1.00086 -0.00476341 0)
(0.998379 -0.00487833 0)
(0.996779 -0.00659924 0)
(0.99303 -0.00850569 0)
(0.990697 -0.0059985 0)
(0.986914 -0.00815302 0)
(0.986484 0.00157732 0)
(0.988606 -3.39504e-05 0)
(0.988087 0.00596754 0)
(0.990862 0.00894664 0)
(0.994073 0.00982916 0)
(0.99389 0.013311 0)
(0.998908 -0.00117041 0)
(1.00403 0.00199741 0)
(0.9971 -0.0112864 0)
(0.991576 0.000158177 0)
(0.99123 -0.00668306 0)
(0.993222 0.00951444 0)
(1.00054 0.000958654 0)
(1.0013 0.00259052 0)
(1.00054 -0.00453024 0)
(0.998388 -0.0049215 0)
(0.996764 -0.00636044 0)
(0.993287 -0.00840459 0)
(0.990643 -0.00581629 0)
(0.986997 -0.00787376 0)
(0.985511 0.00131435 0)
(0.987282 0.000227127 0)
(0.986322 0.00554805 0)
(0.988629 0.00905875 0)
(0.991993 0.0096719 0)
(0.992042 0.0131903 0)
(0.998934 -0.00116302 0)
(1.00387 0.00192753 0)
(0.997306 -0.0110228 0)
(0.991453 0.000116351 0)
(0.991368 -0.00652436 0)
(0.992719 0.00915854 0)
(1.00007 0.00101363 0)
(1.00097 0.00237834 0)
(1.0003 -0.00429196 0)
(0.998379 -0.00497064 0)
(0.996725 -0.00612289 0)
(0.993466 -0.00828804 0)
(0.990693 -0.00564107 0)
(0.987253 -0.00753769 0)
(0.985281 0.00106202 0)
(0.986787 0.000517691 0)
(0.985711 0.0051839 0)
(0.987656 0.0091155 0)
(0.991084 0.00957856 0)
(0.991296 0.0129626 0)
(0.998953 -0.00115116 0)
(1.00372 0.00184738 0)
(0.997386 -0.0107441 0)
(0.991464 6.79484e-05 0)
(0.991546 -0.0063468 0)
(0.992604 0.00878713 0)
(0.999825 0.00107655 0)
(1.00078 0.00214901 0)
(1.00012 -0.00404665 0)
(0.998367 -0.00502078 0)
(0.996677 -0.00588837 0)
(0.99359 -0.00815333 0)
(0.990779 -0.00548248 0)
(0.987557 -0.00716264 0)
(0.985424 0.000814749 0)
(0.986727 0.000815216 0)
(0.985721 0.00487832 0)
(0.987402 0.00911261 0)
(0.990827 0.00953513 0)
(0.991173 0.0126708 0)
(0.998968 -0.00113483 0)
(1.00358 0.00175765 0)
(0.997416 -0.0104506 0)
(0.991534 1.11325e-05 0)
(0.991742 -0.00615221 0)
(0.992665 0.00839873 0)
(0.99967 0.00114888 0)
(1.00065 0.00190802 0)
(0.999955 -0.00379728 0)
(0.998353 -0.00506716 0)
(0.996629 -0.00566186 0)
(0.993681 -0.00799131 0)
(0.990877 -0.00534841 0)
(0.987862 -0.00676383 0)
(0.985728 0.000573776 0)
(0.986861 0.00109818 0)
(0.98601 0.00463447 0)
(0.987496 0.00904951 0)
(0.990874 0.00952065 0)
(0.991347 0.0123471 0)
(0.998982 -0.00111377 0)
(1.00345 0.001658 0)
(0.997431 -0.0101424 0)
(0.991627 -5.54142e-05 0)
(0.991944 -0.0059413 0)
(0.992795 0.00799252 0)
(0.999549 0.00123185 0)
(1.00055 0.00165706 0)
(0.999807 -0.00354319 0)
(0.99834 -0.00510729 0)
(0.996585 -0.00544718 0)
(0.993756 -0.00780308 0)
(0.990982 -0.00523623 0)
(0.988159 -0.00634904 0)
(0.986091 0.000345758 0)
(0.98707 0.00135258 0)
(0.986403 0.00445052 0)
(0.987741 0.00893036 0)
(0.991039 0.00951439 0)
(0.991641 0.0120153 0)
(0.998995 -0.00108767 0)
(1.00331 0.00154818 0)
(0.997444 -0.00982022 0)
(0.991728 -0.000131134 0)
(0.992149 -0.00571619 0)
(0.992949 0.00757014 0)
(0.999436 0.00132365 0)
(1.00046 0.00139765 0)
(0.999663 -0.00328669 0)
(0.998327 -0.00513633 0)
(0.996546 -0.00524922 0)
(0.993824 -0.00758841 0)
(0.991096 -0.00514172 0)
(0.988448 -0.00592643 0)
(0.986476 0.000139684 0)
(0.987311 0.00157254 0)
(0.986827 0.00431867 0)
(0.988049 0.00876744 0)
(0.991242 0.00950246 0)
(0.991973 0.0116904 0)
(0.999009 -0.00105647 0)
(1.00318 0.001428 0)
(0.997457 -0.00948398 0)
(0.991832 -0.000216304 0)
(0.992355 -0.00547695 0)
(0.993113 0.00713431 0)
(0.999324 0.00142179 0)
(1.00037 0.0011344 0)
(0.999522 -0.00303597 0)
(0.998312 -0.00514637 0)
(0.996515 -0.00507127 0)
(0.993888 -0.00734632 0)
(0.991222 -0.00506107 0)
(0.988733 -0.00550275 0)
(0.98687 -3.72594e-05 0)
(0.98757 0.00175863 0)
(0.987256 0.00423147 0)
(0.988388 0.00857555 0)
(0.991456 0.00947624 0)
(0.992309 0.0113813 0)
(0.999022 -0.00101987 0)
(1.00305 0.00129704 0)
(0.997473 -0.0091339 0)
(0.991939 -0.000310356 0)
(0.992561 -0.00522416 0)
(0.993284 0.00668526 0)
(0.999212 0.00152537 0)
(1.00029 0.000871316 0)
(0.999384 -0.00279552 0)
(0.998296 -0.00513256 0)
(0.996492 -0.00491521 0)
(0.993948 -0.00707684 0)
(0.991359 -0.00499082 0)
(0.989018 -0.00508997 0)
(0.98727 -0.000181983 0)
(0.987845 0.00191275 0)
(0.987685 0.00418066 0)
(0.988747 0.00835992 0)
(0.991674 0.00942487 0)
(0.992639 0.0110898 0)
(0.999036 -0.000977826 0)
(1.00292 0.00115561 0)
(0.997491 -0.00877064 0)
(0.99205 -0.000411925 0)
(0.992767 -0.00496012 0)
(0.993462 0.00622618 0)
(0.9991 0.00162674 0)
(1.0002 0.000612933 0)
(0.999249 -0.00257167 0)
(0.998277 -0.00509254 0)
(0.996476 -0.00478082 0)
(0.994006 -0.00678414 0)
(0.991507 -0.00492015 0)
(0.989305 -0.00469541 0)
(0.987676 -0.00029402 0)
(0.988138 0.00203271 0)
(0.988112 0.00415637 0)
(0.989122 0.00812517 0)
(0.991898 0.00934358 0)
(0.99296 0.0108117 0)
(0.999049 -0.000930437 0)
(1.00279 0.00100439 0)
(0.997511 -0.0083953 0)
(0.992165 -0.000519211 0)
(0.992974 -0.0046866 0)
(0.993647 0.0057612 0)
(0.998987 0.00172727 0)
(1.00012 0.000363143 0)
(0.999118 -0.00236745 0)
(0.998254 -0.0050278 0)
(0.996469 -0.00466483 0)
(0.994063 -0.00647723 0)
(0.991664 -0.00483791 0)
(0.989595 -0.00431941 0)
(0.988085 -0.000365519 0)
(0.988448 0.0021212 0)
(0.988537 0.00415312 0)
(0.989509 0.00787841 0)
(0.992129 0.00923056 0)
(0.993272 0.0105375 0)
(0.999062 -0.000877435 0)
(1.00267 0.000843829 0)
(0.997534 -0.0080101 0)
(0.992285 -0.000630551 0)
(0.99318 -0.0044058 0)
(0.993838 0.00529448 0)
(0.998876 0.0018232 0)
(1.00003 0.000128881 0)
(0.998991 -0.00218603 0)
(0.998228 -0.00493537 0)
(0.996471 -0.00456614 0)
(0.99412 -0.00616416 0)
(0.99183 -0.00474394 0)
(0.989889 -0.00396585 0)
(0.988496 -0.000395131 0)
(0.988776 0.0021826 0)
(0.988959 0.00417034 0)
(0.989906 0.00762824 0)
(0.992369 0.00908058 0)
(0.993576 0.0102543 0)
(0.999075 -0.000818927 0)
(1.00255 0.000674553 0)
(0.997559 -0.00761629 0)
(0.992411 -0.000745133 0)
(0.993387 -0.00412028 0)
(0.994036 0.00482997 0)
(0.998767 0.00190414 0)
(0.99995 -8.56944e-05 0)
(0.998869 -0.00202855 0)
(0.998198 -0.00481393 0)
(0.996482 -0.00448075 0)
(0.994178 -0.00585039 0)
(0.992004 -0.00463692 0)
(0.990189 -0.00363466 0)
(0.988909 -0.00038936 0)
(0.989121 0.00221463 0)
(0.989379 0.00419597 0)
(0.990308 0.00738905 0)
(0.992617 0.00889892 0)
(0.993875 0.00995658 0)
(0.999088 -0.000755365 0)
(1.00243 0.000497909 0)
(0.997586 -0.00721647 0)
(0.992542 -0.000858644 0)
(0.993594 -0.00383408 0)
(0.99424 0.00437352 0)
(0.99866 0.00196597 0)
(0.999865 -0.000272864 0)
(0.998753 -0.00189832 0)
(0.998163 -0.004671 0)
(0.996502 -0.00439969 0)
(0.994239 -0.00553408 0)
(0.992185 -0.00451343 0)
(0.990496 -0.00332878 0)
(0.989321 -0.000346648 0)
(0.989482 0.0022271 0)
(0.9898 0.0042078 0)
(0.990712 0.00716703 0)
(0.992869 0.00870257 0)
(0.994166 0.00965346 0)
(0.999102 -0.000686523 0)
(1.00231 0.000314309 0)
(0.997616 -0.00681445 0)
(0.992678 -0.000967877 0)
(0.993802 -0.00355142 0)
(0.99445 0.00393197 0)
(0.998558 0.00200386 0)
(0.99978 -0.000430914 0)
(0.998642 -0.00179442 0)
(0.998124 -0.00451048 0)
(0.99653 -0.00432028 0)
(0.994303 -0.0052159 0)
(0.992371 -0.00437349 0)
(0.990811 -0.00304892 0)
(0.989733 -0.000272554 0)
(0.989854 0.00223465 0)
(0.990223 0.00419572 0)
(0.991118 0.00695433 0)
(0.993124 0.00850297 0)
(0.994447 0.00936136 0)
(0.999117 -0.00061309 0)
(1.0022 0.000125313 0)
(0.997649 -0.00641365 0)
(0.992818 -0.00106871 0)
(0.994011 -0.00327753 0)
(0.994664 0.00350978 0)
(0.998461 0.00201575 0)
(0.999693 -0.000566472 0)
(0.998538 -0.00171059 0)
(0.998081 -0.00433165 0)
(0.996567 -0.00424393 0)
(0.994372 -0.00490215 0)
(0.992563 -0.00421093 0)
(0.991134 -0.00278923 0)
(0.990146 -0.000180799 0)
(0.990234 0.00223709 0)
(0.990646 0.00416461 0)
(0.991528 0.00674255 0)
(0.993383 0.00829685 0)
(0.994714 0.00908475 0)
(0.999132 -0.000535721 0)
(1.0021 -6.66546e-05 0)
(0.997687 -0.00601847 0)
(0.992964 -0.00115504 0)
(0.994221 -0.00301575 0)
(0.994884 0.00311119 0)
(0.99837 0.0020007 0)
(0.999606 -0.000674008 0)
(0.99844 -0.00164593 0)
(0.998033 -0.00414096 0)
(0.996611 -0.00416465 0)
(0.994448 -0.00459377 0)
(0.992758 -0.00402642 0)
(0.991464 -0.00254646 0)
(0.990558 -6.8266e-05 0)
(0.990621 0.00223863 0)
(0.99107 0.0041176 0)
(0.991941 0.00652622 0)
(0.993647 0.00807945 0)
(0.994965 0.00882125 0)
(0.999147 -0.000454561 0)
(1.002 -0.000259626 0)
(0.99773 -0.00563237 0)
(0.993113 -0.00122579 0)
(0.99443 -0.00276994 0)
(0.995107 0.00274065 0)
(0.998286 0.00195771 0)
(0.999519 -0.000759176 0)
(0.99835 -0.00159596 0)
(0.997981 -0.00394533 0)
(0.996661 -0.0040774 0)
(0.994532 -0.00429134 0)
(0.992956 -0.00382126 0)
(0.991803 -0.00232934 0)
(0.990971 6.02177e-05 0)
(0.99101 0.00224632 0)
(0.991492 0.00405143 0)
(0.992357 0.00629905 0)
(0.993919 0.00785026 0)
(0.9952 0.00857316 0)
(0.999163 -0.000370339 0)
(1.0019 -0.000450909 0)
(0.99778 -0.0052584 0)
(0.993267 -0.00127632 0)
(0.994638 -0.00254592 0)
(0.995333 0.00239916 0)
(0.998208 0.00189255 0)
(0.999432 -0.000827851 0)
(0.998267 -0.00155433 0)
(0.997926 -0.00374497 0)
(0.996718 -0.00398588 0)
(0.994624 -0.00399609 0)
(0.993154 -0.00359278 0)
(0.992149 -0.00213477 0)
(0.991385 0.000191739 0)
(0.991398 0.00226424 0)
(0.99191 0.00396898 0)
(0.992775 0.00605786 0)
(0.994202 0.00760316 0)
(0.995423 0.00833811 0)
(0.999179 -0.000284889 0)
(1.00182 -0.00063744 0)
(0.997838 -0.00490057 0)
(0.993424 -0.00130007 0)
(0.994846 -0.00234524 0)
(0.995561 0.00208608 0)
(0.998139 0.00181154 0)
(0.999347 -0.000883451 0)
(0.998193 -0.00151469 0)
(0.997868 -0.00354355 0)
(0.99678 -0.0038928 0)
(0.994727 -0.0037058 0)
(0.993352 -0.00333886 0)
(0.992501 -0.00195881 0)
(0.991803 0.000314301 0)
(0.991781 0.00229931 0)
(0.992318 0.00388164 0)
(0.993194 0.00580512 0)
(0.994499 0.00733175 0)
(0.995638 0.00810422 0)
(0.999197 -0.000198044 0)
(1.00174 -0.000816375 0)
(0.997904 -0.00456366 0)
(0.993586 -0.00129826 0)
(0.995053 -0.00216947 0)
(0.99579 0.0018017 0)
(0.998077 0.00171325 0)
(0.999263 -0.000931809 0)
(0.998128 -0.00147229 0)
(0.997808 -0.00334134 0)
(0.996848 -0.00379059 0)
(0.994844 -0.0034268 0)
(0.993546 -0.00306208 0)
(0.992854 -0.00179386 0)
(0.992226 0.000415256 0)
(0.992161 0.00235646 0)
(0.992711 0.00380955 0)
(0.993608 0.0055457 0)
(0.99481 0.00703481 0)
(0.995855 0.007853 0)
(0.999215 -0.000112137 0)
(1.00166 -0.000984937 0)
(0.997979 -0.00424907 0)
(0.993752 -0.00127082 0)
(0.995258 -0.00201729 0)
(0.996019 0.00154044 0)
(0.998022 0.00160761 0)
(0.999182 -0.000981255 0)
(0.998073 -0.00142791 0)
(0.997746 -0.00313092 0)
(0.99692 -0.00368134 0)
(0.994975 -0.00316123 0)
(0.993738 -0.00276818 0)
(0.993203 -0.00163579 0)
(0.992658 0.000483117 0)
(0.99254 0.00241256 0)
(0.993084 0.00376199 0)
(0.99401 0.00528804 0)
(0.995134 0.00671486 0)
(0.996079 0.00757196 0)
(0.999234 -2.7719e-05 0)
(1.0016 -0.0011387 0)
(0.998066 -0.0039609 0)
(0.993921 -0.00121627 0)
(0.99546 -0.00188786 0)
(0.99625 0.00130068 0)
(0.997973 0.00150351 0)
(0.999104 -0.00103091 0)
(0.998029 -0.00138467 0)
(0.997682 -0.00290619 0)
(0.996996 -0.00357763 0)
(0.995122 -0.00291604 0)
(0.993926 -0.00244991 0)
(0.993542 -0.00147927 0)
(0.993096 0.000511644 0)
(0.992925 0.00244213 0)
(0.993436 0.00373784 0)
(0.994392 0.00505222 0)
(0.995464 0.00638364 0)
(0.996316 0.00726496 0)
(0.999255 5.58019e-05 0)
(1.00154 -0.0012751 0)
(0.998164 -0.00370255 0)
(0.994092 -0.00113862 0)
(0.99566 -0.00177941 0)
(0.996483 0.00107795 0)
(0.99793 0.00140763 0)
(0.999028 -0.00107793 0)
(0.997999 -0.00134714 0)
(0.997616 -0.0026654 0)
(0.997073 -0.00346738 0)
(0.995291 -0.00270426 0)
(0.994113 -0.00211565 0)
(0.993865 -0.00130349 0)
(0.993537 0.000512054 0)
(0.993321 0.00244052 0)
(0.993772 0.00372626 0)
(0.994748 0.00484926 0)
(0.995794 0.00604981 0)
(0.996562 0.00694471 0)
(0.999276 0.000134017 0)
(1.00148 -0.00139172 0)
(0.998275 -0.00347328 0)
(0.994266 -0.00103851 0)
(0.995856 -0.00168378 0)
(0.996718 0.000860814 0)
(0.997894 0.0013249 0)
(0.998954 -0.00112898 0)
(0.997984 -0.00132759 0)
(0.99755 -0.0023994 0)
(0.997146 -0.00333743 0)
(0.995482 -0.00252882 0)
(0.994303 -0.00178189 0)
(0.994165 -0.00110375 0)
(0.993974 0.000494663 0)
(0.993732 0.00239985 0)
(0.994099 0.00371178 0)
(0.995072 0.00468514 0)
(0.996116 0.00571955 0)
(0.996816 0.00661488 0)
(0.999299 0.000206577 0)
(1.00143 -0.00148283 0)
(0.9984 -0.00327733 0)
(0.994444 -0.00091943 0)
(0.996044 -0.0016008 0)
(0.996957 0.000649381 0)
(0.997865 0.00126036 0)
(0.998879 -0.00116474 0)
(0.997988 -0.00133334 0)
(0.997487 -0.00211429 0)
(0.99721 -0.00317372 0)
(0.995694 -0.00240182 0)
(0.994504 -0.00146469 0)
(0.994438 -0.000865153 0)
(0.994399 0.000484174 0)
(0.994161 0.0023128 0)
(0.994426 0.00367312 0)
(0.995365 0.00456389 0)
(0.996421 0.00541175 0)
(0.997076 0.00626831 0)
(0.999324 0.000271503 0)
(1.00138 -0.00154553 0)
(0.998538 -0.00311492 0)
(0.994625 -0.000787487 0)
(0.996225 -0.00152036 0)
(0.997201 0.000433561 0)
(0.997845 0.00121166 0)
(0.998802 -0.00117112 0)
(0.998011 -0.00136917 0)
(0.997433 -0.00183071 0)
(0.997258 -0.0029574 0)
(0.995924 -0.00231677 0)
(0.994725 -0.00119279 0)
(0.994689 -0.000599322 0)
(0.994797 0.000501327 0)
(0.994598 0.00218745 0)
(0.994767 0.00358876 0)
(0.995632 0.00446573 0)
(0.996697 0.00515178 0)
(0.997338 0.00591089 0)
(0.99935 0.000327554 0)
(1.00134 -0.00157643 0)
(0.998691 -0.00298711 0)
(0.994811 -0.000646142 0)
(0.996395 -0.00143301 0)
(0.997449 0.000206418 0)
(0.997837 0.00117343 0)
(0.998719 -0.0011465 0)
(0.998054 -0.00143535 0)
(0.997395 -0.00156229 0)
(0.997288 -0.0026806 0)
(0.996162 -0.00224778 0)
(0.994973 -0.000979122 0)
(0.994923 -0.000322178 0)
(0.995161 0.000558474 0)
(0.995036 0.00205249 0)
(0.995127 0.00346029 0)
(0.99589 0.00435738 0)
(0.996937 0.00494712 0)
(0.997591 0.00556661 0)
(0.999378 0.00037312 0)
(1.00129 -0.00157207 0)
(0.998857 -0.00289279 0)
(0.995004 -0.000505224 0)
(0.996551 -0.00133563 0)
(0.997703 -2.71677e-05 0)
(0.997844 0.00113717 0)
(0.998627 -0.00107396 0)
(0.998114 -0.00152432 0)
(0.997384 -0.00133043 0)
(0.997297 -0.00234347 0)
(0.996398 -0.0021652 0)
(0.995252 -0.00083701 0)
(0.995152 -4.35181e-05 0)
(0.995485 0.000667047 0)
(0.99546 0.00192875 0)
(0.995502 0.0032925 0)
(0.996151 0.00421383 0)
(0.997149 0.00477452 0)
(0.99782 0.00526362 0)
(0.999409 0.000405741 0)
(1.00124 -0.00153322 0)
(0.999034 -0.00282572 0)
(0.995205 -0.000370536 0)
(0.996692 -0.00121594 0)
(0.997959 -0.000267364 0)
(0.997873 0.00108998 0)
(0.998524 -0.000940895 0)
(0.998184 -0.00161743 0)
(0.997409 -0.00115899 0)
(0.997292 -0.00196936 0)
(0.996614 -0.00203814 0)
(0.99556 -0.000766425 0)
(0.995391 0.000193316 0)
(0.995769 0.000821409 0)
(0.995856 0.00184057 0)
(0.995885 0.0031016 0)
(0.996425 0.00403785 0)
(0.997347 0.00459788 0)
(0.998021 0.00500676 0)
(0.999442 0.000425573 0)
(1.00119 -0.00145924 0)
(0.999221 -0.00278317 0)
(0.995416 -0.000252663 0)
(0.996813 -0.00106645 0)
(0.998217 -0.000514987 0)
(0.99793 0.00101736 0)
(0.99841 -0.000749045 0)
(0.998256 -0.00168488 0)
(0.997475 -0.00106175 0)
(0.997283 -0.00158531 0)
(0.996801 -0.00185233 0)
(0.995887 -0.000734324 0)
(0.995654 0.000361805 0)
(0.996026 0.000989647 0)
(0.996211 0.00180188 0)
(0.996263 0.00290664 0)
(0.996711 0.00383651 0)
(0.997541 0.00440306 0)
(0.998198 0.00477724 0)
(0.999477 0.000431356 0)
(1.00113 -0.00135208 0)
(0.999415 -0.00275722 0)
(0.995642 -0.000159519 0)
(0.996914 -0.000883525 0)
(0.998468 -0.000755209 0)
(0.998023 0.000900518 0)
(0.99829 -0.000516341 0)
(0.998315 -0.0017055 0)
(0.997583 -0.0010363 0)
(0.997286 -0.00122071 0)
(0.996953 -0.00159898 0)
(0.996218 -0.000713327 0)
(0.995945 0.000456359 0)
(0.996269 0.00114153 0)
(0.996524 0.00181194 0)
(0.996624 0.00273435 0)
(0.997008 0.00360881 0)
(0.997742 0.00418886 0)
(0.998356 0.00455651 0)
(0.999514 0.000422372 0)
(1.00107 -0.0012169 0)
(0.999611 -0.00273829 0)
(0.995884 -9.81546e-05 0)
(0.996994 -0.000669636 0)
(0.998706 -0.000966459 0)
(0.998155 0.00073189 0)
(0.998172 -0.000267568 0)
(0.998353 -0.00165373 0)
(0.997729 -0.00106456 0)
(0.997316 -0.000908727 0)
(0.997069 -0.00128882 0)
(0.996532 -0.000675144 0)
(0.996264 0.000472735 0)
(0.996517 0.00125799 0)
(0.9968 0.00185674 0)
(0.99695 0.00260758 0)
(0.997302 0.0033736 0)
(0.997954 0.00394768 0)
(0.998505 0.00433472 0)
(0.999553 0.000399322 0)
(1.001 -0.00105634 0)
(0.999805 -0.00271973 0)
(0.996146 -7.79959e-05 0)
(0.997054 -0.000430819 0)
(0.99892 -0.00113055 0)
(0.998329 0.00051216 0)
(0.998069 -3.17642e-05 0)
(0.99836 -0.00151474 0)
(0.9979 -0.00112052 0)
(0.997386 -0.000670117 0)
(0.997157 -0.000955848 0)
(0.996811 -0.000592187 0)
(0.996602 0.000441275 0)
(0.996786 0.00131897 0)
(0.997052 0.00190838 0)
(0.997235 0.00252786 0)
(0.997578 0.00316613 0)
(0.998178 0.00367885 0)
(0.998659 0.00409341 0)
(0.999593 0.000362339 0)
(1.00092 -0.000878067 0)
(0.999989 -0.00268749 0)
(0.99643 -9.91346e-05 0)
(0.9971 -0.000189368 0)
(0.999102 -0.00123427 0)
(0.998539 0.000253095 0)
(0.997995 0.000179437 0)
(0.998334 -0.00129062 0)
(0.998081 -0.00117011 0)
(0.997504 -0.000511927 0)
(0.997234 -0.000623951 0)
(0.997047 -0.000456407 0)
(0.996942 0.000401105 0)
(0.997079 0.00131646 0)
(0.997297 0.00194406 0)
(0.997486 0.00248379 0)
(0.997817 0.00300883 0)
(0.998395 0.00341307 0)
(0.998831 0.00381105 0)
(0.999635 0.000315081 0)
(1.00083 -0.00069438 0)
(1.00016 -0.00263587 0)
(0.996733 -0.000163374 0)
(0.997138 4.93806e-05 0)
(0.999244 -0.00126467 0)
(0.998781 -3.61205e-05 0)
(0.997964 0.000342186 0)
(0.998276 -0.00100202 0)
(0.998251 -0.00117986 0)
(0.997669 -0.000428647 0)
(0.997314 -0.000318819 0)
(0.997237 -0.000269844 0)
(0.997265 0.000372717 0)
(0.997395 0.00125451 0)
(0.997551 0.00194439 0)
(0.997714 0.00244875 0)
(0.998016 0.00289421 0)
(0.998578 0.00319661 0)
(0.999014 0.00350203 0)
(0.999677 0.000257926 0)
(1.00074 -0.00050895 0)
(1.00031 -0.0025575 0)
(0.997055 -0.000268563 0)
(0.997175 0.00027824 0)
(0.999339 -0.00121281 0)
(0.999043 -0.000336648 0)
(0.997989 0.000422913 0)
(0.998196 -0.000682535 0)
(0.998394 -0.00112922 0)
(0.997874 -0.000402071 0)
(0.997417 -5.61782e-05 0)
(0.997385 -3.42926e-05 0)
(0.997551 0.000383962 0)
(0.997725 0.00115555 0)
(0.997825 0.00190251 0)
(0.997934 0.00240836 0)
(0.998188 0.00279757 0)
(0.998713 0.00303545 0)
(0.999176 0.00321747 0)
(0.999719 0.000196075 0)
(1.00063 -0.000335293 0)
(1.00044 -0.00244216 0)
(0.997392 -0.00040175 0)
(0.99722 0.000470597 0)
(0.999384 -0.00108668 0)
(0.999308 -0.000615723 0)
(0.998075 0.000418827 0)
(0.998112 -0.000357929 0)
(0.9985 -0.00101053 0)
(0.998108 -0.000406959 0)
(0.997557 0.000149751 0)
(0.997502 0.000218551 0)
(0.997782 0.000451218 0)
(0.99805 0.00105302 0)
(0.998124 0.00180394 0)
(0.998156 0.00235977 0)
(0.998344 0.0027082 0)
(0.998809 0.00290769 0)
(0.999292 0.00299513 0)
(0.999761 0.00013279 0)
(1.00053 -0.000178074 0)
(1.00053 -0.00229382 0)
(0.99774 -0.000553729 0)
(0.997283 0.000611099 0)
(0.99938 -0.000895413 0)
(0.999559 -0.000839908 0)
(0.998225 0.000333327 0)
(0.998039 -6.17847e-05 0)
(0.99856 -0.000827054 0)
(0.998354 -0.000421308 0)
(0.99774 0.000282407 0)
(0.997606 0.000460635 0)
(0.997958 0.000566066 0)
(0.998343 0.000984219 0)
(0.998446 0.00165124 0)
(0.998398 0.00227569 0)
(0.998491 0.00263122 0)
(0.99888 0.00279369 0)
(0.999354 0.00282861 0)
(0.999801 6.93792e-05 0)
(1.00043 -4.24636e-05 0)
(1.0006 -0.0021096 0)
(0.998089 -0.000713744 0)
(0.997371 0.00068971 0)
(0.999334 -0.000662343 0)
(0.99978 -0.000992649 0)
(0.99843 0.000187941 0)
(0.997997 0.000186887 0)
(0.998577 -0.000586025 0)
(0.99859 -0.000420414 0)
(0.997969 0.000344662 0)
(0.997717 0.000681185 0)
(0.998084 0.000718597 0)
(0.998582 0.000958806 0)
(0.998767 0.00149405 0)
(0.998676 0.00212657 0)
(0.998643 0.00255252 0)
(0.998931 0.0026964 0)
(0.999372 0.00269542 0)
(0.999839 1.41659e-05 0)
(1.00032 6.22535e-05 0)
(1.00063 -0.00189356 0)
(0.998431 -0.000864605 0)
(0.99749 0.00070198 0)
(0.999256 -0.000410408 0)
(0.999957 -0.00106277 0)
(0.998681 8.73511e-06 0)
(0.998002 0.000369359 0)
(0.998556 -0.000315952 0)
(0.998795 -0.00038365 0)
(0.998238 0.000340011 0)
(0.997853 0.000846893 0)
(0.998167 0.000895421 0)
(0.998761 0.000970153 0)
(0.999059 0.00136329 0)
(0.998981 0.00192969 0)
(0.99883 0.00242451 0)
(0.998974 0.00261688 0)
(0.999352 0.00258371 0)
(0.999874 -3.52041e-05 0)
(1.00023 0.000142269 0)
(1.00062 -0.00165737 0)
(0.998757 -0.000993324 0)
(0.997642 0.000652911 0)
(0.99916 -0.0001628 0)
(1.00008 -0.0010378 0)
(0.998959 -0.000190735 0)
(0.998064 0.000467302 0)
(0.998514 -5.14693e-05 0)
(0.998953 -0.000304142 0)
(0.998528 0.000301301 0)
(0.998034 0.00094245 0)
(0.998227 0.00107529 0)
(0.998874 0.00103269 0)
(0.999303 0.00125944 0)
(0.999288 0.00173012 0)
(0.999066 0.00222649 0)
(0.999039 0.00251777 0)
(0.999306 0.0024968 0)
(0.999906 -7.53686e-05 0)
(1.00015 0.000190572 0)
(1.00059 -0.00140807 0)
(0.999055 -0.00108874 0)
(0.997829 0.000557485 0)
(0.999064 6.04556e-05 0)
(1.00014 -0.0009329 0)
(0.999244 -0.000374033 0)
(0.998188 0.000474747 0)
(0.998467 0.000211474 0)
(0.999061 -0.000175971 0)
(0.998822 0.000249562 0)
(0.998264 0.000961145 0)
(0.998292 0.00122421 0)
(0.998924 0.00114056 0)
(0.999481 0.00118823 0)
(0.999568 0.00155016 0)
(0.999336 0.00199142 0)
(0.999159 0.00235611 0)
(0.999261 0.00242202 0)
(0.999933 -0.00010428 0)
(1.00007 0.000210263 0)
(1.00053 -0.00116034 0)
(0.999319 -0.00113855 0)
(0.998045 0.000424335 0)
(0.998979 0.000251182 0)
(1.00015 -0.000775994 0)
(0.99951 -0.000501778 0)
(0.998377 0.000411929 0)
(0.998441 0.000428846 0)
(0.999107 3.06302e-06 0)
(0.999091 0.00020733 0)
(0.998542 0.000902575 0)
(0.99839 0.00131525 0)
(0.998926 0.0012672 0)
(0.999584 0.00117034 0)
(0.999803 0.00138663 0)
(0.999609 0.00176098 0)
(0.999345 0.00212992 0)
(0.999264 0.00231426 0)
(0.999956 -0.00012291 0)
(1.00002 0.00020718 0)
(1.00046 -0.000925568 0)
(0.999544 -0.00113965 0)
(0.998285 0.000270065 0)
(0.99892 0.000390352 0)
(1.00011 -0.000579977 0)
(0.999743 -0.000573855 0)
(0.998611 0.000313139 0)
(0.998454 0.000571797 0)
(0.99911 0.000201626 0)
(0.999306 0.00021415 0)
(0.998848 0.000793849 0)
(0.998542 0.00132843 0)
(0.998913 0.00138156 0)
(0.999605 0.00121178 0)
(0.999974 0.00125482 0)
(0.999861 0.0015465 0)
(0.999572 0.00188257 0)
(0.999351 0.00214401 0)
(0.999975 -0.000130429 0)
(0.999973 0.000183351 0)
(1.00038 -0.00070975 0)
(0.999726 -0.00109536 0)
(0.998537 0.000114464 0)
(0.998894 0.000468161 0)
(1.00003 -0.000370526 0)
(0.999927 -0.000581113 0)
(0.998878 0.000191379 0)
(0.998516 0.000655846 0)
(0.999087 0.000391838 0)
(0.999455 0.000267192 0)
(0.99915 0.000686867 0)
(0.998756 0.00124825 0)
(0.998921 0.0014506 0)
(0.99956 0.0012877 0)
(1.00006 0.00118966 0)
(1.00008 0.00135437 0)
(0.999814 0.00164489 0)
(0.999516 0.00192539 0)
(0.999989 -0.000128708 0)
(0.999944 0.000148006 0)
(1.00029 -0.000520774 0)
(0.999865 -0.00100981 0)
(0.998792 -3.1165e-05 0)
(0.998906 0.000493045 0)
(0.999934 -0.000172961 0)
(1.00006 -0.000520513 0)
(0.999153 7.28387e-05 0)
(0.998632 0.000663795 0)
(0.999058 0.000562552 0)
(0.999542 0.000354323 0)
(0.999412 0.000610755 0)
(0.999013 0.00111809 0)
(0.998988 0.00144213 0)
(0.999489 0.00136867 0)
(1.00006 0.00119508 0)
(1.00022 0.00121605 0)