/*--------------------------------*- C++ -*----------------------------------*\
| =========                 |                                                 |
| \\      /  F ield         | OpenFOAM: The Open Source CFD Toolbox           |
|  \\    /   O peration     | Version:  2106                                  |
|   \\  /    A nd           | Website:  www.openfoam.com                      |
|    \\/     M anipulation  |                                                 |
\*---------------------------------------------------------------------------*/
FoamFile
{
    version     2.0;
    format      ascii;
    arch        "LSB;label=32;scalar=64";
    class       volVectorField;
    location    "0.405";
    object      U;
}
// * * * * * * * * * * * * * * * * * * * * * * * * * * * * * * * * * * * * * //

dimensions      [0 1 -1 0 0 0 0];

internalField   nonuniform List<vector> 
9600
(
(0.858186 -0.0105722 0)
(1.15542 0.00842987 0)
(0.820172 -0.000148501 0)
(1.14014 -0.00198157 0)
(0.901748 -0.00525097 0)
(1.1916 0.00114488 0)
(0.910069 0.00394489 0)
(1.17934 0.00869272 0)
(0.905849 -0.000693827 0)
(1.13298 0.00503635 0)
(0.921281 -0.00759993 0)
(1.15638 -0.00164928 0)
(0.920542 -0.00647776 0)
(1.1551 0.00135148 0)
(0.915893 -0.000524446 0)
(1.15447 0.00520542 0)
(0.910281 0.00178175 0)
(1.15174 0.00337604 0)
(0.893702 0.000519062 0)
(1.1467 0.000875159 0)
(0.869308 -0.0107536 0)
(1.14932 0.00872817 0)
(0.842878 -0.000165967 0)
(1.12951 -0.00250645 0)
(0.91825 -0.00599828 0)
(1.18054 0.00120568 0)
(0.929591 0.00385619 0)
(1.16344 0.0088644 0)
(0.935498 -0.000231433 0)
(1.1135 0.00503133 0)
(0.955055 -0.00816025 0)
(1.12878 -0.00151659 0)
(0.961098 -0.00654239 0)
(1.11972 0.00154385 0)
(0.968804 -0.000651939 0)
(1.10261 0.00528592 0)
(0.984724 0.0019636 0)
(1.07375 0.00344522 0)
(0.998574 0.00146706 0)
(1.03024 0.00118145 0)
(0.886492 -0.0109433 0)
(1.13545 0.00905493 0)
(0.880112 -0.000168078 0)
(1.10816 -0.00296989 0)
(0.944586 -0.00663684 0)
(1.15625 0.00126252 0)
(0.965266 0.00389032 0)
(1.13599 0.00901363 0)
(0.977283 0.00026912 0)
(1.08502 0.00485829 0)
(0.992295 -0.00835766 0)
(1.08867 -0.00159975 0)
(1.00259 -0.00637759 0)
(1.07672 0.00137347 0)
(1.01445 -0.000197758 0)
(1.05956 0.00485901 0)
(1.02589 0.00286681 0)
(1.03821 0.00296402 0)
(1.02417 0.00299691 0)
(1.0148 0.00168437 0)
(0.907284 -0.0111212 0)
(1.11473 0.00914279 0)
(0.921346 -5.19881e-05 0)
(1.07956 -0.0033329 0)
(0.971048 -0.00715392 0)
(1.1226 0.00112905 0)
(1.00312 0.00401449 0)
(1.10715 0.00899117 0)
(1.01211 0.000821378 0)
(1.06078 0.0047352 0)
(1.01471 -0.00828474 0)
(1.05458 -0.00182835 0)
(1.02183 -0.00615308 0)
(1.04793 0.00111036 0)
(1.03114 0.00012808 0)
(1.04094 0.00460172 0)
(1.03399 0.00335739 0)
(1.03018 0.00301793 0)
(1.02328 0.00378351 0)
(1.01486 0.00263139 0)
(0.929068 -0.0112811 0)
(1.09029 0.00900999 0)
(0.957525 0.000187545 0)
(1.05072 -0.00361564 0)
(0.989784 -0.00759949 0)
(1.08721 0.00079135 0)
(1.03026 0.00408272 0)
(1.08389 0.00895144 0)
(1.03138 0.00137976 0)
(1.04551 0.00476492 0)
(1.02153 -0.00804 0)
(1.03225 -0.00202791 0)
(1.02294 -0.00599078 0)
(1.03204 0.000824069 0)
(1.03124 0.000294971 0)
(1.03301 0.00441173 0)
(1.03176 0.00374294 0)
(1.02639 0.00318987 0)
(1.0201 0.00453437 0)
(1.01243 0.00345656 0)
(0.94931 -0.0114089 0)
(1.0659 0.00875042 0)
(0.983397 0.000497507 0)
(1.02786 -0.00379001 0)
(0.998496 -0.00796519 0)
(1.05656 0.000325607 0)
(1.04184 0.00402671 0)
(1.06661 0.00898558 0)
(1.03672 0.00187983 0)
(1.03624 0.00492885 0)
(1.01997 -0.00765726 0)
(1.01862 -0.00214753 0)
(1.0166 -0.00589947 0)
(1.02179 0.000502856 0)
(1.02558 0.00035443 0)
(1.02675 0.00422323 0)
(1.02681 0.00410411 0)
(1.02184 0.00338148 0)
(1.01618 0.00519965 0)
(1.00917 0.00429856 0)
(0.966257 -0.0114945 0)
(1.0444 0.00843579 0)
(0.998229 0.000811135 0)
(1.01333 -0.00384167 0)
(0.999727 -0.0082357 0)
(1.03328 -0.000181665 0)
(1.04023 0.00385035 0)
(1.05238 0.00905883 0)
(1.03355 0.00230923 0)
(1.02904 0.00515249 0)
(1.01589 -0.00718497 0)
(1.01016 -0.0022104 0)
(1.00928 -0.00582656 0)
(1.01353 0.000148073 0)
(1.01814 0.000359797 0)
(1.0198 0.00400464 0)
(1.02034 0.00440942 0)
(1.01631 0.00358253 0)
(1.01135 0.00575417 0)
(1.00554 0.00514924 0)
(0.979218 -0.0115356 0)
(1.02701 0.00812357 0)
(1.00443 0.00107837 0)
(1.00596 -0.00379383 0)
(0.99763 -0.00840302 0)
(1.01688 -0.000659773 0)
(1.03085 0.00360143 0)
(1.03903 0.00911234 0)
(1.02659 0.00266568 0)
(1.02229 0.00535589 0)
(1.01198 -0.0066885 0)
(1.00495 -0.00223918 0)
(1.00346 -0.00571808 0)
(1.00662 -0.000206406 0)
(1.01051 0.000355681 0)
(1.01233 0.00375548 0)
(1.01319 0.00465503 0)
(1.01032 0.00379087 0)
(1.00627 0.00618445 0)
(1.00181 0.00596144 0)
(0.988349 -0.011533 0)
(1.01375 0.00785315 0)
(1.00542 0.00127345 0)
(1.00307 -0.00369142 0)
(0.995283 -0.00846776 0)
(1.00575 -0.00105557 0)
(1.01894 0.00334219 0)
(1.02642 0.0091064 0)
(1.01887 0.00293945 0)
(1.0161 0.00548605 0)
(1.009 -0.0062175 0)
(1.00192 -0.00224727 0)
(0.999649 -0.00554973 0)
(1.0013 -0.000515606 0)
(1.00385 0.000376672 0)
(1.00536 0.00350725 0)
(1.00645 0.00483344 0)
(1.00475 0.00399768 0)
(1.00171 0.00647711 0)
(0.998513 0.0067003 0)
(0.994272 -0.0114875 0)
(1.00415 0.00763492 0)
(1.00413 0.00138647 0)
(1.00232 -0.00357532 0)
(0.993932 -0.00843917 0)
(0.998481 -0.00134244 0)
(1.00807 0.00311661 0)
(1.01553 0.00902462 0)
(1.01207 0.003125 0)
(1.01104 0.00552208 0)
(1.00696 -0.00579336 0)
(1.00031 -0.00224912 0)
(0.997532 -0.00531878 0)
(0.997699 -0.00075585 0)
(0.998882 0.000441436 0)
(0.99986 0.00328463 0)
(1.00107 0.00493704 0)
(1.00034 0.00419871 0)
(0.998242 0.00664136 0)
(0.99608 0.00734222 0)
(0.997771 -0.0114022 0)
(0.997681 0.00745698 0)
(1.0024 0.00142891 0)
(1.0023 -0.00346963 0)
(0.993563 -0.00833525 0)
(0.994037 -0.00152419 0)
(0.999975 0.00294119 0)
(1.00728 0.00887162 0)
(1.00694 0.00322977 0)
(1.0074 0.00546787 0)
(1.00565 -0.00541584 0)
(0.999519 -0.00225514 0)
(0.996538 -0.00503734 0)
(0.995638 -0.000929298 0)
(0.995756 0.000546003 0)
(0.996237 0.00309927 0)
(0.997442 0.00497181 0)
(0.997386 0.00439672 0)
(0.996006 0.00670795 0)
(0.9946 0.00787523 0)
(0.999613 -0.0112828 0)
(0.993744 0.00730059 0)
(1.00103 0.00142401 0)
(1.00241 -0.00338326 0)
(0.993733 -0.00817691 0)
(0.991608 -0.00162365 0)
(0.994905 0.00281397 0)
(1.00186 0.00866466 0)
(1.00356 0.0032725 0)
(1.00508 0.0053421 0)
(1.00485 -0.00507287 0)
(0.999167 -0.00226852 0)
(0.996159 -0.00472446 0)
(0.994686 -0.0010472 0)
(0.99414 0.000672704 0)
(0.994284 0.00295759 0)
(0.9954 0.00495173 0)
(0.995729 0.00459607 0)
(0.994825 0.00671748 0)
(0.993913 0.00829737 0)
(1.00045 -0.0111366 0)
(0.991671 0.00714992 0)
(1.00019 0.00139144 0)
(1.00248 -0.00331582 0)
(0.994061 -0.00798159 0)
(0.9905 -0.00167054 0)
(0.992255 0.002724 0)
(0.9988 0.00842146 0)
(1.00162 0.00327569 0)
(1.00374 0.0051672 0)
(1.00435 -0.00474975 0)
(0.999018 -0.00228783 0)
(0.996063 -0.00439673 0)
(0.994395 -0.00113046 0)
(0.993509 0.000798667 0)
(0.993481 0.00286145 0)
(0.994486 0.0048932 0)
(0.994986 0.00479653 0)
(0.994366 0.00671029 0)
(0.993751 0.00861186 0)
(1.00077 -0.0109702 0)
(0.990788 0.00699429 0)
(0.999736 0.00134786 0)
(1.00248 -0.00326304 0)
(0.994358 -0.00776147 0)
(0.990156 -0.00169095 0)
(0.991156 0.00265876 0)
(0.997334 0.00815506 0)
(1.00063 0.00325859 0)
(1.00301 0.00496216 0)
(1.00403 -0.00443631 0)
(0.998957 -0.00230881 0)
(0.996069 -0.00406804 0)
(0.994423 -0.00118838 0)
(0.993395 0.000908958 0)
(0.993305 0.0028067 0)
(0.994211 0.00481315 0)
(0.994764 0.00498823 0)
(0.994312 0.00671614 0)
(0.993872 0.00882828 0)
(1.00085 -0.0107888 0)
(0.990546 0.00682797 0)
(0.999493 0.00130453 0)
(1.00243 -0.00322151 0)
(0.994575 -0.00752418 0)
(0.99019 -0.00170232 0)
(0.990874 0.00260882 0)
(0.99675 0.0078732 0)
(1.00018 0.00323469 0)
(1.0026 0.00474125 0)
(1.00378 -0.00412692 0)
(0.998929 -0.00232696 0)
(0.996101 -0.00374888 0)
(0.994569 -0.00121919 0)
(0.993497 0.00100022 0)
(0.993394 0.00278398 0)
(0.994225 0.00472959 0)
(0.994781 0.00515802 0)
(0.994443 0.00674678 0)
(0.994117 0.00896237 0)
(1.00086 -0.0105953 0)
(0.990588 0.00664853 0)
(0.999336 0.0012678 0)
(1.00235 -0.0031897 0)
(0.994725 -0.00727328 0)
(0.990377 -0.00171482 0)
(0.990946 0.00256957 0)
(0.99657 0.00757963 0)
(0.999965 0.00320994 0)
(1.00233 0.00451372 0)
(1.00356 -0.00382164 0)
(0.998914 -0.00233728 0)
(0.996135 -0.0034434 0)
(0.994742 -0.0012281 0)
(0.993662 0.00107107 0)
(0.993561 0.00278276 0)
(0.99434 0.00465697 0)
(0.994886 0.00530308 0)
(0.994641 0.00679971 0)
(0.994403 0.00903235 0)
(1.00085 -0.0103911 0)
(0.990733 0.006455 0)
(0.999207 0.00124066 0)
(1.00226 -0.0031672 0)
(0.994835 -0.00701004 0)
(0.990612 -0.00173267 0)
(0.991141 0.0025375 0)
(0.996541 0.00727783 0)
(0.999852 0.00318468 0)
(1.00211 0.0042845 0)
(1.00336 -0.00352386 0)
(0.998905 -0.00233334 0)
(0.996166 -0.00315548 0)
(0.99491 -0.00121833 0)
(0.993836 0.00112269 0)
(0.993736 0.00279378 0)
(0.99448 0.00460098 0)
(0.995018 0.00542857 0)
(0.994858 0.0068643 0)
(0.994699 0.00905378 0)
(1.00084 -0.0101766 0)
(0.990906 0.00624693 0)
(0.999086 0.0012245 0)
(1.00216 -0.00315404 0)
(0.994926 -0.00673522 0)
(0.990853 -0.00175652 0)
(0.991368 0.00251042 0)
(0.996559 0.00696836 0)
(0.999773 0.00316126 0)
(1.00191 0.00405815 0)
(1.00317 -0.00323717 0)
(0.9989 -0.00231071 0)
(0.996197 -0.00288616 0)
(0.995069 -0.0011898 0)
(0.994009 0.00116487 0)
(0.993905 0.00280802 0)
(0.994624 0.0045615 0)
(0.995158 0.00553699 0)
(0.995078 0.00692718 0)
(0.994994 0.0090389 0)
(1.00083 -0.00995173 0)
(0.991087 0.00602384 0)
(0.998967 0.00122004 0)
(1.00207 -0.00315033 0)
(0.995011 -0.00644914 0)
(0.991092 -0.00178754 0)
(0.9916 0.00248876 0)
(0.996587 0.00665165 0)
(0.999704 0.00313733 0)
(1.00172 0.00383804 0)
(1.00298 -0.00296631 0)
(0.9989 -0.00227076 0)
(0.996229 -0.00263167 0)
(0.995223 -0.0011427 0)
(0.99418 0.00120748 0)
(0.994068 0.00282094 0)
(0.99477 0.00453557 0)
(0.995301 0.00563099 0)
(0.995296 0.00697706 0)
(0.995284 0.00899341 0)
(1.00082 -0.00971656 0)
(0.991271 0.00578578 0)
(0.998849 0.00122723 0)
(1.00197 -0.00315592 0)
(0.995094 -0.00615192 0)
(0.99133 -0.00182519 0)
(0.991832 0.00246975 0)
(0.996618 0.00633249 0)
(0.999639 0.00310624 0)
(1.00153 0.00362915 0)
(1.0028 -0.00271419 0)
(0.998904 -0.00221586 0)
(0.996265 -0.00238898 0)
(0.995375 -0.00108339 0)
(0.994354 0.00125448 0)
(0.994229 0.00283555 0)
(0.994921 0.00451618 0)
(0.995448 0.00571689 0)
(0.995509 0.00701011 0)
(0.995569 0.0089166 0)
(1.00081 -0.00947081 0)
(0.991459 0.00553242 0)
(0.998731 0.00124616 0)
(1.00188 -0.0031707 0)
(0.99518 -0.00584536 0)
(0.991569 -0.00186699 0)
(0.992065 0.0024502 0)
(0.996649 0.00601428 0)
(0.999574 0.00306651 0)
(1.00134 0.00343571 0)
(1.00261 -0.00247866 0)
(0.998911 -0.00214583 0)
(0.996304 -0.00215644 0)
(0.995526 -0.0010137 0)
(0.994532 0.00130769 0)
(0.994391 0.00285666 0)
(0.99508 0.00449094 0)
(0.995599 0.00580091 0)
(0.995716 0.0070377 0)
(0.995847 0.0088149 0)
(1.0008 -0.0092145 0)
(0.991652 0.00526378 0)
(0.998614 0.00127721 0)
(1.0018 -0.00319472 0)
(0.995268 -0.00553004 0)
(0.99181 -0.00191065 0)
(0.9923 0.00242976 0)
(0.99668 0.00569954 0)
(0.999512 0.0030133 0)
(1.00115 0.00325875 0)
(1.00243 -0.00226344 0)
(0.998921 -0.00205909 0)
(0.996346 -0.00192757 0)
(0.995677 -0.000940596 0)
(0.994715 0.00136453 0)
(0.994554 0.00289477 0)
(0.995248 0.00445196 0)
(0.995759 0.00587576 0)
(0.995917 0.0070719 0)
(0.996117 0.00870061 0)
(1.00079 -0.00894786 0)
(0.991851 0.0049807 0)
(0.998495 0.00131942 0)
(1.00171 -0.00322688 0)
(0.995358 -0.00520678 0)
(0.992054 -0.00195488 0)
(0.992537 0.00240497 0)
(0.996712 0.00539269 0)
(0.999451 0.00294414 0)
(1.00097 0.00310084 0)
(1.00225 -0.00206637 0)
(0.998933 -0.00196535 0)
(0.996389 -0.00169838 0)
(0.995828 -0.000873315 0)
(0.994907 0.00141695 0)
(0.994718 0.00295625 0)
(0.995424 0.00440673 0)
(0.995929 0.005923 0)
(0.996111 0.00711086 0)
(0.996375 0.0085828 0)
(1.00078 -0.00867076 0)
(0.992056 0.00468336 0)
(0.998375 0.00137154 0)
(1.00163 -0.00326534 0)
(0.995451 -0.00488018 0)
(0.992299 -0.00199834 0)
(0.992777 0.00237096 0)
(0.996746 0.00510006 0)
(0.999394 0.00285746 0)
(1.00079 0.00296366 0)
(1.00206 -0.00187863 0)
(0.998948 -0.00187705 0)
(0.996432 -0.00146545 0)
(0.995977 -0.000803485 0)
(0.995108 0.00146125 0)
(0.994884 0.00303401 0)
(0.995607 0.00436785 0)
(0.996113 0.005933 0)
(0.996303 0.00714755 0)
(0.99662 0.00846426 0)
(1.00077 -0.00838345 0)
(0.992268 0.00437206 0)
(0.998254 0.00143432 0)
(1.00155 -0.00330888 0)
(0.995546 -0.00455277 0)
(0.992546 -0.0020364 0)
(0.993021 0.00232405 0)
(0.99678 0.00482614 0)
(0.99934 0.00274945 0)
(1.00061 0.00284216 0)
(1.00187 -0.00169965 0)
(0.998967 -0.00178999 0)
(0.996477 -0.00122235 0)
(0.996123 -0.000717161 0)
(0.99532 0.0015006 0)
(0.995052 0.00312448 0)
(0.995791 0.0043411 0)
(0.99631 0.00590609 0)
(0.996493 0.00717651 0)
(0.996851 0.00834793 0)
(1.00076 -0.00808624 0)
(0.992489 0.00404805 0)
(0.998133 0.00150563 0)
(1.00148 -0.0033559 0)
(0.995646 -0.00422677 0)
(0.992792 -0.00206462 0)
(0.993267 0.00226141 0)
(0.996814 0.00457138 0)
(0.999289 0.00262119 0)
(1.00044 0.0027316 0)
(1.00169 -0.00152441 0)
(0.998991 -0.00170846 0)
(0.996524 -0.00097411 0)
(0.996264 -0.00061946 0)
(0.995543 0.0015287 0)
(0.995225 0.00322857 0)
(0.995975 0.00432999 0)
(0.99652 0.00584269 0)
(0.996686 0.00718779 0)
(0.997065 0.00824388 0)
(1.00074 -0.00777953 0)
(0.992718 0.00371299 0)
(0.998012 0.00158356 0)
(1.0014 -0.00340364 0)
(0.995749 -0.00390637 0)
(0.993038 -0.00208011 0)
(0.993517 0.00217913 0)
(0.996848 0.00434015 0)
(0.999241 0.00247462 0)
(1.00027 0.0026308 0)
(1.0015 -0.00134498 0)
(0.999019 -0.00163939 0)
(0.996573 -0.000729564 0)
(0.996399 -0.000502677 0)
(0.995777 0.00153616 0)
(0.995405 0.00334143 0)
(0.996153 0.00434319 0)
(0.996741 0.00574829 0)
(0.996886 0.00716516 0)
(0.997263 0.00816287 0)
(1.00073 -0.00746388 0)
(0.992955 0.00336757 0)
(0.997892 0.00166849 0)
(1.00133 -0.00345088 0)
(0.995856 -0.0035942 0)
(0.993282 -0.00207827 0)
(0.99377 0.00207229 0)
(0.996881 0.00413588 0)
(0.999195 0.00231464 0)
(1.00011 0.0025355 0)
(1.0013 -0.00115724 0)
(0.999051 -0.0015773 0)
(0.996628 -0.000494409 0)
(0.996524 -0.000353039 0)
(0.996023 0.0015208 0)
(0.995595 0.00344682 0)
(0.996324 0.00438475 0)
(0.996968 0.00563687 0)
(0.997099 0.00709058 0)
(0.997445 0.00810142 0)
(1.00071 -0.00714003 0)
(0.993201 0.00301411 0)
(0.997774 0.00175549 0)
(1.00126 -0.00349467 0)
(0.995968 -0.00329493 0)
(0.993523 -0.00205459 0)
(0.994028 0.00194003 0)
(0.996912 0.00395747 0)
(0.99915 0.00214507 0)
(0.999958 0.00243637 0)
(1.00111 -0.00096163 0)
(0.999086 -0.00152323 0)
(0.996692 -0.000270688 0)
(0.996637 -0.000168878 0)
(0.996276 0.00149217 0)
(0.995801 0.00352784 0)
(0.996484 0.00445309 0)
(0.997192 0.00552788 0)
(0.997328 0.00695623 0)
(0.99762 0.00803239 0)
(1.00069 -0.00680832 0)
(0.993454 0.00265397 0)
(0.997658 0.00184363 0)
(1.00119 -0.0035326 0)
(0.996085 -0.00301363 0)
(0.99376 -0.00200894 0)
(0.994289 0.00178268 0)
(0.996943 0.00379995 0)
(0.999105 0.00197041 0)
(0.999817 0.00232964 0)
(1.00091 -0.000753531 0)
(0.999123 -0.00147397 0)
(0.996766 -6.00765e-05 0)
(0.996737 4.50562e-05 0)
(0.996531 0.0014646 0)
(0.996026 0.00356884 0)
(0.996638 0.00454489 0)
(0.997406 0.00544856 0)
(0.997572 0.00677602 0)
(0.997802 0.00791952 0)
(1.00067 -0.00646961 0)
(0.993716 0.00228872 0)
(0.997545 0.00193212 0)
(1.00113 -0.00356281 0)
(0.996206 -0.00275209 0)
(0.99399 -0.00193963 0)
(0.994554 0.00160244 0)
(0.996975 0.00365877 0)
(0.999058 0.00180091 0)
(0.999688 0.00221062 0)
(1.00071 -0.000530618 0)
(0.99916 -0.00141763 0)
(0.996854 0.000127561 0)
(0.996825 0.000295194 0)
(0.996782 0.00145582 0)
(0.996271 0.00355955 0)
(0.996792 0.00463002 0)
(0.9976 0.00541235 0)
(0.99782 0.00658491 0)
(0.997999 0.00774487 0)
(1.00065 -0.00612518 0)
(0.993985 0.00192115 0)
(0.997435 0.00201853 0)
(1.00106 -0.00358325 0)
(0.996333 -0.00251182 0)
(0.994211 -0.00184353 0)
(0.994823 0.00140128 0)
(0.997007 0.00352979 0)
(0.999009 0.00164609 0)
(0.999573 0.00206963 0)
(1.0005 -0.000293391 0)
(0.999194 -0.00134864 0)
(0.996958 0.000276563 0)
(0.996903 0.000579359 0)
(0.997019 0.00147907 0)
(0.996534 0.00351416 0)
(0.996953 0.00467994 0)
(0.997778 0.00539925 0)
(0.998059 0.00642307 0)
(0.998209 0.00753191 0)
(1.00063 -0.00577613 0)
(0.994262 0.00155418 0)
(0.99733 0.00210085 0)
(1.00099 -0.00359075 0)
(0.996468 -0.00229979 0)
(0.994422 -0.00171824 0)
(0.995093 0.00118283 0)
(0.997042 0.00340541 0)
(0.998955 0.00151276 0)
(0.999474 0.00190581 0)
(1.0003 -4.94051e-05 0)
(0.999221 -0.00125665 0)
(0.997082 0.000374883 0)
(0.996975 0.000871663 0)
(0.997237 0.00153478 0)
(0.996807 0.00344503 0)
(0.997126 0.00470319 0)
(0.997945 0.00538075 0)
(0.998286 0.00628878 0)
(0.998424 0.00731656 0)
(1.00061 -0.00542316 0)
(0.994546 0.00118876 0)
(0.997229 0.00217922 0)
(1.00093 -0.00358333 0)
(0.99661 -0.0021182 0)
(0.994621 -0.00156503 0)
(0.995362 0.000950667 0)
(0.997082 0.00328241 0)
(0.998893 0.00141118 0)
(0.999391 0.0017147 0)
(1.00011 0.000193282 0)
(0.999238 -0.00112571 0)
(0.997225 0.000422867 0)
(0.997048 0.00115189 0)
(0.997431 0.00163657 0)
(0.997088 0.00335599 0)
(0.997311 0.00470003 0)
(0.998102 0.00535889 0)
(0.9985 0.00615876 0)
(0.99864 0.00710236 0)
(1.00058 -0.00506786 0)
(0.994837 0.000827541 0)
(0.997134 0.00224755 0)
(1.00086 -0.00356055 0)
(0.996762 -0.00196882 0)
(0.994807 -0.00138539 0)
(0.995627 0.000712613 0)
(0.99713 0.00315085 0)
(0.998821 0.00134915 0)
(0.999324 0.00149711 0)
(0.999925 0.000429166 0)
(0.999238 -0.000943518 0)
(0.997383 0.000438258 0)
(0.997131 0.00139532 0)
(0.997599 0.00179235 0)
(0.997366 0.00327175 0)
(0.997512 0.00465234 0)
(0.998252 0.00533553 0)
(0.998698 0.00603736 0)
(0.998857 0.00687657 0)
(1.00055 -0.00471182 0)
(0.995134 0.000473826 0)
(0.997046 0.00230231 0)
(1.00078 -0.00352038 0)
(0.996924 -0.00185515 0)
(0.994981 -0.00118188 0)
(0.995886 0.000477052 0)
(0.997186 0.00299726 0)
(0.998737 0.00133415 0)
(0.999269 0.00126985 0)
(0.999761 0.000629381 0)
(0.99922 -0.00070478 0)
(0.99755 0.000444435 0)
(0.997231 0.00158219 0)
(0.997745 0.00197784 0)
(0.99763 0.00321764 0)
(0.997727 0.00456281 0)
(0.998403 0.0052898 0)
(0.998876 0.00593555 0)
(0.999069 0.00665282 0)
(1.00052 -0.00435566 0)
(0.995437 0.000125617 0)
(0.996965 0.00234821 0)
(1.0007 -0.003458 0)
(0.997098 -0.00177921 0)
(0.995142 -0.000955977 0)
(0.996135 0.000251108 0)
(0.997256 0.0028136 0)
(0.998643 0.00137152 0)
(0.999222 0.00104659 0)
(0.999621 0.000780943 0)
(0.999186 -0.000414694 0)
(0.997717 0.000461486 0)
(0.997353 0.00170191 0)
(0.997876 0.00216285 0)
(0.997873 0.00320313 0)
(0.997947 0.00445715 0)
(0.99856 0.0052055 0)
(0.99904 0.00583768 0)
(0.999263 0.00646005 0)
(1.00049 -0.00400145 0)
(0.995744 -0.000210406 0)
(0.996895 0.00237678 0)
(1.00062 -0.00336763 0)
(0.997284 -0.00174276 0)
(0.995293 -0.00071188 0)
(0.99637 4.89286e-05 0)
(0.997342 0.00259464 0)
(0.998538 0.00145091 0)
(0.999176 0.000847618 0)
(0.999511 0.000869072 0)
(0.999139 -0.000105213 0)
(0.997871 0.000512731 0)
(0.997495 0.00176108 0)
(0.998004 0.00232241 0)
(0.998094 0.00322553 0)
(0.998163 0.00436563 0)
(0.998724 0.00508698 0)
(0.999199 0.00571123 0)
(0.999437 0.0062992 0)
(1.00046 -0.00365148 0)
(0.996055 -0.000531842 0)
(0.996836 0.00238899 0)
(1.00052 -0.00324525 0)
(0.997482 -0.00174732 0)
(0.995436 -0.000461185 0)
(0.996586 -0.000114333 0)
(0.997447 0.00233579 0)
(0.998427 0.00155435 0)
(0.999124 0.000701142 0)
(0.999432 0.000873998 0)
(0.999089 0.000217595 0)
(0.998007 0.00062153 0)
(0.99765 0.00178653 0)
(0.998137 0.00244229 0)
(0.998299 0.0032623 0)
(0.998365 0.00430054 0)
(0.998884 0.00496152 0)
(0.999362 0.00554171 0)
(0.999597 0.00613788 0)
(1.00043 -0.00330744 0)
(0.996368 -0.000835083 0)
(0.996791 0.00237964 0)
(1.00042 -0.00308735 0)
(0.997692 -0.00179387 0)
(0.995573 -0.000212654 0)
(0.996777 -0.000232273 0)
(0.997571 0.00203425 0)
(0.998319 0.00166849 0)
(0.999057 0.000626371 0)
(0.999386 0.000814833 0)
(0.999049 0.000521179 0)
(0.998116 0.00079141 0)
(0.997807 0.00180353 0)
(0.998277 0.0025195 0)
(0.998492 0.00329084 0)
(0.998556 0.00425535 0)
(0.999031 0.00486247 0)
(0.999524 0.0053485 0)
(0.999756 0.00594103 0)
(1.00039 -0.00297028 0)
(0.996682 -0.00111658 0)
(0.996762 0.0023438 0)
(1.0003 -0.0028924 0)
(0.997913 -0.00187807 0)
(0.99571 2.64309e-05 0)
(0.99694 -0.000291047 0)
(0.997714 0.00169394 0)
(0.998221 0.00176727 0)
(0.99897 0.000632571 0)
(0.999363 0.000727529 0)
(0.99903 0.000756452 0)
(0.998204 0.00100741 0)
(0.997956 0.00183403 0)
(0.998423 0.00255385 0)
(0.998683 0.00330388 0)
(0.99874 0.00421103 0)
(0.999158 0.00479216 0)
(0.999668 0.00517345 0)
(0.999916 0.00570809 0)
(1.00035 -0.00264394 0)
(0.996996 -0.00137344 0)
(0.996753 0.00228146 0)
(1.00017 -0.00265753 0)
(0.998143 -0.00198932 0)
(0.995853 0.000236153 0)
(0.997068 -0.00028078 0)
(0.997871 0.00133947 0)
(0.998147 0.00182667 0)
(0.998862 0.000714702 0)
(0.999354 0.000634003 0)
(0.99904 0.000917665 0)
(0.998276 0.00124217 0)
(0.998085 0.0018948 0)
(0.99857 0.00255328 0)
(0.998872 0.00329447 0)
(0.998923 0.00415686 0)
(0.999274 0.00472544 0)
(0.999787 0.00503352 0)
(1.00007 0.00547291 0)
(1.00031 -0.00233014 0)
(0.997307 -0.00159764 0)
(0.996765 0.00218411 0)
(1.00003 -0.00238749 0)
(0.998378 -0.00211323 0)
(0.996008 0.000392401 0)
(0.997161 -0.00020445 0)
(0.998035 0.00100139 0)
(0.998104 0.0018342 0)
(0.998735 0.00085756 0)
(0.999345 0.000562023 0)
(0.999083 0.000994892 0)
(0.998345 0.00146538 0)
(0.998191 0.00199585 0)
(0.998711 0.00254228 0)
(0.999064 0.00325329 0)
(0.999107 0.00409559 0)
(0.999383 0.00465935 0)
(0.999881 0.00490833 0)
(1.00019 0.00525699 0)
(1.00027 -0.00203219 0)
(0.997612 -0.00178754 0)
(0.996802 0.00205348 0)
(0.999876 -0.00208327 0)
(0.998613 -0.00223902 0)
(0.996182 0.000480348 0)
(0.997223 -6.48181e-05 0)
(0.998198 0.000694602 0)
(0.998098 0.00177778 0)
(0.998597 0.00103991 0)
(0.999324 0.000544044 0)
(0.999158 0.00100285 0)
(0.998426 0.00165293 0)
(0.998272 0.00213829 0)
(0.998832 0.00254785 0)
(0.999256 0.00317666 0)
(0.9993 0.00400961 0)
(0.999485 0.00460276 0)
(0.999951 0.00479891 0)
(1.0003 0.00505221 0)
(1.00023 -0.00175093 0)
(0.997909 -0.00194107 0)
(0.996866 0.00188702 0)
(0.999711 -0.00175072 0)
(0.99884 -0.00234775 0)
(0.996381 0.000495508 0)
(0.997258 0.000122521 0)
(0.998348 0.000441014 0)
(0.998134 0.00166013 0)
(0.998461 0.00123088 0)
(0.99928 0.000584469 0)
(0.999254 0.000967791 0)
(0.998533 0.00178088 0)
(0.998338 0.00230153 0)
(0.998923 0.0025846 0)
(0.999438 0.00308411 0)
(0.999509 0.00387919 0)
(0.999593 0.00453154 0)
(0.999992 0.00472619 0)
(1.00038 0.00486002 0)
(1.0002 -0.00148912 0)
(0.998195 -0.0020519 0)
(0.996958 0.00168474 0)
(0.999539 -0.00140729 0)
(0.999052 -0.00241902 0)
(0.996608 0.000438367 0)
(0.997275 0.000328357 0)
(0.998475 0.000256423 0)
(0.99821 0.0014958 0)
(0.998338 0.00141045 0)
(0.999208 0.00068423 0)
(0.99936 0.000918641 0)
(0.998674 0.00183951 0)
(0.9984 0.00245737 0)
(0.998979 0.00265985 0)
(0.999595 0.00300815 0)
(0.999728 0.003713 0)
(0.999727 0.00441064 0)
(1.00001 0.00467782 0)
(1.00042 0.00470828 0)
(1.00016 -0.0012519 0)
(0.998467 -0.00211604 0)
(0.997079 0.00145358 0)
(0.999365 -0.00106553 0)
(0.999241 -0.0024457 0)
(0.996862 0.000317233 0)
(0.997284 0.000531667 0)
(0.998573 0.000145517 0)
(0.998321 0.00129965 0)
(0.99824 0.00156044 0)
(0.999108 0.0008426 0)
(0.999459 0.00087873 0)
(0.998849 0.00182283 0)
(0.998477 0.00257938 0)
(0.999004 0.00276766 0)
(0.999712 0.00296715 0)
(0.999943 0.00353827 0)
(0.999895 0.00423298 0)
(1.00004 0.00460513 0)
(1.00041 0.00461449 0)
(1.00012 -0.0010357 0)
(0.998721 -0.00213792 0)
(0.997228 0.001196 0)
(0.999192 -0.000737546 0)
(0.999402 -0.00241158 0)
(0.997144 0.000150781 0)
(0.997296 0.000710405 0)
(0.998638 0.000112611 0)
(0.998459 0.00109036 0)
(0.998181 0.00166174 0)
(0.998983 0.00104344 0)
(0.999534 0.000873686 0)
(0.999053 0.00174085 0)
(0.998585 0.00264561 0)
(0.999011 0.0028883 0)
(0.999782 0.00296455 0)
(1.00013 0.00338368 0)
(1.00009 0.00402016 0)
(1.0001 0.0044693 0)
(1.00038 0.00454366 0)
(1.00009 -0.000845901 0)
(0.998955 -0.00211388 0)
(0.997402 0.000923988 0)
(0.99903 -0.000441062 0)
(0.999528 -0.0023105 0)
(0.997446 -4.0581e-05 0)
(0.997322 0.000843044 0)
(0.998669 0.000143737 0)
(0.998614 0.000887754 0)
(0.998169 0.00170978 0)
(0.998846 0.00126389 0)
(0.99957 0.000919424 0)
(0.999273 0.00162745 0)
(0.998737 0.00264041 0)
(0.999015 0.00299747 0)
(0.999807 0.00299578 0)
(1.00029 0.00325996 0)
(1.00029 0.00380443 0)
(1.00021 0.00427843 0)
(1.00035 0.00444228 0)
(1.00006 -0.000681881 0)
(0.999165 -0.00204899 0)
(0.997599 0.000647974 0)
(0.998884 -0.000181925 0)
(0.999618 -0.00215382 0)
(0.997761 -0.000245339 0)
(0.99737 0.000926552 0)
(0.998669 0.000225681 0)
(0.998775 0.000703154 0)
(0.998207 0.00170246 0)
(0.998709 0.00148599 0)
(0.99956 0.0010199 0)
(0.999488 0.00151491 0)
(0.998934 0.00256028 0)
(0.999036 0.00307256 0)
(0.999791 0.00305908 0)
(1.00039 0.00316741 0)
(1.00047 0.00359836 0)
(1.00034 0.00406221 0)
(1.00035 0.00428459 0)
(1.00003 -0.000541411 0)
(0.999351 -0.00194907 0)
(0.997814 0.000375736 0)
(0.998761 2.74937e-05 0)
(0.999669 -0.00194044 0)
(0.998078 -0.000451684 0)
(0.997449 0.000952045 0)
(0.998641 0.000348589 0)
(0.99893 0.000552839 0)
(0.998298 0.00163494 0)
(0.998588 0.00169005 0)
(0.999502 0.00118207 0)
(0.999677 0.00143101 0)
(0.999173 0.00241217 0)
(0.999097 0.00308719 0)
(0.999749 0.00313777 0)
(1.00044 0.00312382 0)
(1.00063 0.00340785 0)
(1.00048 0.00384541 0)
(1.00038 0.00409179 0)
(1 -0.000427585 0)
(0.999511 -0.00181617 0)
(0.99804 0.000121913 0)
(0.998666 0.000183191 0)
(0.999685 -0.00168891 0)
(0.998387 -0.000628 0)
(0.997565 0.000918388 0)
(0.998597 0.000490284 0)
(0.999066 0.000450515 0)
(0.998438 0.00150964 0)
(0.998503 0.00184916 0)
(0.999402 0.00138603 0)
(0.999813 0.00140559 0)
(0.999434 0.00222652 0)
(0.999214 0.00302329 0)
(0.999706 0.00319049 0)
(1.00042 0.00313145 0)
(1.00075 0.00325248 0)
(1.00062 0.00362656 0)
(1.00044 0.00389913 0)
(0.999985 -0.000335687 0)
(0.999646 -0.00166172 0)
(0.998273 -0.00010955 0)
(0.998603 0.000290295 0)
(0.999669 -0.00141662 0)
(0.998678 -0.000761135 0)
(0.997718 0.000838082 0)
(0.998547 0.000633775 0)
(0.999172 0.000399983 0)
(0.998618 0.00134533 0)
(0.99847 0.00194673 0)
(0.999278 0.00159931 0)
(0.999886 0.00144256 0)
(0.99969 0.00205204 0)
(0.999386 0.00288168 0)
(0.999693 0.00319018 0)
(1.00037 0.00315601 0)
(1.00081 0.00315883 0)
(1.00076 0.00340875 0)
(1.00052 0.00370264 0)
(0.999969 -0.000264566 0)
(0.999754 -0.00149251 0)
(0.998505 -0.000310218 0)
(0.998574 0.000338232 0)
(0.999627 -0.00113282 0)
(0.998941 -0.000844698 0)
(0.997907 0.000716757 0)
(0.998501 0.000766747 0)
(0.999241 0.000404587 0)
(0.998825 0.00116722 0)
(0.998499 0.00196859 0)
(0.999148 0.00180684 0)
(0.999893 0.00153306 0)
(0.999912 0.00191533 0)
(0.999598 0.00268655 0)
(0.999727 0.0031229 0)
(1.00031 0.00315243 0)
(1.0008 0.00311466 0)
(1.00086 0.0032261 0)
(1.00061 0.00348787 0)
(0.999958 -0.000212098 0)
(0.999838 -0.00131607 0)
(0.998731 -0.000473359 0)
(0.998582 0.000339864 0)
(0.999569 -0.000859757 0)
(0.999167 -0.000866483 0)
(0.998124 0.000566933 0)
(0.998474 0.000868488 0)
(0.99927 0.000465317 0)
(0.999037 0.000997612 0)
(0.998596 0.00190263 0)
(0.999038 0.00197686 0)
(0.999841 0.00167552 0)
(1.00008 0.00182448 0)
(0.999828 0.00247796 0)
(0.999812 0.00298985 0)
(1.00026 0.00310202 0)
(1.00075 0.00307496 0)
(1.0009 0.00310146 0)
(1.0007 0.00327002 0)
(0.99995 -0.000174599 0)
(0.999899 -0.00113975 0)
(0.998944 -0.00059481 0)
(0.998623 0.000303918 0)
(0.999503 -0.00060498 0)
(0.999354 -0.000837599 0)
(0.998362 0.000414044 0)
(0.998477 0.000924487 0)
(0.999266 0.00056919 0)
(0.999232 0.000865079 0)
(0.998754 0.00176135 0)
(0.998976 0.00207427 0)
(0.999744 0.00183696 0)
(1.00017 0.0018006 0)
(1.00005 0.00227407 0)
(0.99994 0.00280693 0)
(1.00025 0.00300201 0)
(1.0007 0.00300193 0)
(1.00089 0.00301451 0)
(1.00077 0.00308752 0)
(0.999947 -0.000149793 0)
(0.999941 -0.000970195 0)
(0.99914 -0.000672242 0)
(0.998695 0.000239284 0)
(0.999439 -0.000379618 0)
(0.999498 -0.000762518 0)
(0.998609 0.000269068 0)
(0.998517 0.000938655 0)
(0.999238 0.000685955 0)
(0.99939 0.000789645 0)
(0.998954 0.00157751 0)
(0.998979 0.0020874 0)
(0.999636 0.00197457 0)
(1.00019 0.00184672 0)
(1.00023 0.00211052 0)
(1.0001 0.00259193 0)
(1.00027 0.00286072 0)
(1.00066 0.00288882 0)
(1.00086 0.00291953 0)
(1.00081 0.00295934 0)
(0.999946 -0.000134429 0)
(0.999967 -0.000811713 0)
(0.999313 -0.000710085 0)
(0.998793 0.000160905 0)
(0.999384 -0.000195587 0)
(0.999602 -0.000648269 0)
(0.998854 0.000142212 0)
(0.998597 0.000911518 0)
(0.999202 0.000799095 0)
(0.999502 0.00076921 0)
(0.999171 0.00139837 0)
(0.99905 0.0020054 0)
(0.999548 0.00206832 0)
(1.00015 0.00191774 0)
(1.00034 0.00202114 0)
(1.00026 0.00237606 0)
(1.00032 0.00268059 0)
(1.00063 0.00275368 0)
(1.00085 0.00278494 0)
(1.00081 0.00285244 0)
(0.999948 -0.000126206 0)
(0.999979 -0.000667077 0)
(0.999463 -0.00071299 0)
(0.998911 7.58855e-05 0)
(0.999345 -5.01971e-05 0)
(0.999669 -0.000512833 0)
(0.999085 4.68399e-05 0)
(0.998716 0.000840364 0)
(0.999173 0.000897336 0)
(0.999571 0.000792624 0)
(0.999376 0.00124876 0)
(0.999179 0.00185723 0)
(0.999504 0.00208899 0)
(1.00007 0.00198846 0)
(1.00038 0.00198635 0)
(1.00039 0.00220703 0)
(1.0004 0.00247489 0)
(1.00062 0.00260459 0)
(1.00084 0.00262982 0)
(1.00083 0.00271988 0)
(0.999952 -0.000121612 0)
(0.999983 -0.00054153 0)
(0.999587 -0.000683578 0)
(0.99904 -5.732e-06 0)
(0.999326 5.55154e-05 0)
(0.999706 -0.000367431 0)
(0.999291 -9.5236e-06 0)
(0.998868 0.000742338 0)
(0.999166 0.00095884 0)
(0.999601 0.000855561 0)
(0.99955 0.00113356 0)
(0.999344 0.00169502 0)
(0.999519 0.00202321 0)
(0.999998 0.00203307 0)
(1.00037 0.0019813 0)
(1.00046 0.00209802 0)
(1.00049 0.00228893 0)
(1.00064 0.00243602 0)
(1.00084 0.00248287 0)
(1.00087 0.00255713 0)
(0.999958 -0.000118907 0)
(0.99998 -0.000435193 0)
(0.999687 -0.000629203 0)
(0.999175 -7.9607e-05 0)
(0.999329 0.000123781 0)
(0.99972 -0.000221465 0)
(0.999466 -2.98439e-05 0)
(0.999041 0.000639081 0)
(0.999194 0.000970475 0)
(0.999606 0.000932594 0)
(0.999683 0.00106851 0)
(0.999518 0.00153055 0)