/*--------------------------------*- C++ -*----------------------------------*\
| =========                 |                                                 |
| \\      /  F ield         | OpenFOAM: The Open Source CFD Toolbox           |
|  \\    /   O peration     | Version:  2106                                  |
|   \\  /    A nd           | Website:  www.openfoam.com                      |
|    \\/     M anipulation  |                                                 |
\*---------------------------------------------------------------------------*/
FoamFile
{
    version     2.0;
    format      ascii;
    arch        "LSB;label=32;scalar=64";
    class       surfaceScalarField;
    location    "0.355";
    object      phi;
}
// * * * * * * * * * * * * * * * * * * * * * * * * * * * * * * * * * * * * * //

dimensions      [0 3 -1 0 0 0 0];

oriented        oriented;

internalField   nonuniform List<scalar> 
19000
(
1.20035e-06
-2.90956e-07
1.20103e-06
8.94664e-07
1.14246e-06
-5.2605e-07
1.16437e-06
4.27011e-07
1.2016e-06
-7.25743e-07
1.17702e-06
6.04197e-07
1.1657e-06
-1.4668e-07
1.15768e-06
1.37237e-07
1.17345e-06
-2.73717e-07
1.17946e-06
8.06358e-08
1.18667e-06
-3.09229e-09
1.19112e-06
6.71142e-08
1.1934e-06
-1.12842e-07
1.18356e-06
-1.65761e-08
1.18797e-06
3.59995e-08
1.16677e-06
-5.67687e-08
1.17586e-06
2.15022e-07
1.15286e-06
5.95731e-08
1.15791e-06
1.31542e-07
1.0641e-07
1.12952e-06
1.25732e-06
-3.24017e-07
1.26614e-06
8.85842e-07
1.20752e-06
-4.6743e-07
1.22704e-06
4.07492e-07
1.26467e-06
-7.63372e-07
1.24472e-06
6.2415e-07
1.2311e-06
-1.3306e-07
1.22377e-06
1.44568e-07
1.23629e-06
-2.86243e-07
1.24515e-06
7.17757e-08
1.24753e-06
-5.46306e-09
1.25672e-06
5.79208e-08
1.25247e-06
-1.08598e-07
1.24993e-06
-1.40272e-08
1.24324e-06
4.26828e-08
1.2339e-06
-4.7431e-08
1.22453e-06
2.244e-07
1.22495e-06
5.91478e-08
1.20052e-06
1.55975e-07
9.24696e-08
1.21446e-06
1.31398e-06
-3.55216e-07
1.33446e-06
8.65366e-07
1.27637e-06
-4.09342e-07
1.29316e-06
3.90699e-07
1.32603e-06
-7.96234e-07
1.3191e-06
6.31073e-07
1.2979e-06
-1.11853e-07
1.2945e-06
1.47966e-07
1.29821e-06
-2.89951e-07
1.31355e-06
5.64315e-08
1.30983e-06
-1.73972e-09
1.32222e-06
4.55333e-08
1.31161e-06
-9.79887e-08
1.31416e-06
-1.65828e-08
1.30247e-06
5.43776e-08
1.29805e-06
-4.30168e-08
1.28842e-06
2.34028e-07
1.28813e-06
5.94395e-08
1.27302e-06
1.71084e-07
9.8851e-08
1.26664e-06
1.37037e-06
-3.81485e-07
1.40088e-06
8.34862e-07
1.34626e-06
-3.54723e-07
1.35811e-06
3.78848e-07
1.38387e-06
-8.22e-07
1.38956e-06
6.25383e-07
1.3626e-06
-8.48904e-08
1.3605e-06
1.50066e-07
1.35675e-06
-2.86197e-07
1.3748e-06
3.8378e-08
1.37094e-06
2.11831e-09
1.38055e-06
3.59263e-08
1.36985e-06
-8.72861e-08
1.37177e-06
-1.85068e-08
1.36242e-06
6.37328e-08
1.3579e-06
-3.84997e-08
1.35377e-06
2.38159e-07
1.34958e-06
6.36276e-08
1.34187e-06
1.78797e-07
1.12158e-07
1.32856e-06
1.42715e-06
-4.00285e-07
1.46327e-06
7.98744e-07
1.41571e-06
-3.07157e-07
1.42146e-06
3.73089e-07
1.43896e-06
-8.395e-07
1.45278e-06
6.11569e-07
1.42529e-06
-5.7403e-08
1.42181e-06
1.53542e-07
1.41396e-06
-2.78347e-07
1.43047e-06
2.18728e-08
1.42997e-06
2.61974e-09
1.43579e-06
3.01063e-08
1.42719e-06
-7.86895e-08
1.42796e-06
-1.92791e-08
1.42102e-06
7.06715e-08
1.41679e-06
-3.42673e-08
1.41583e-06
2.3912e-07
1.41016e-06
6.9297e-08
1.40585e-06
1.83106e-07
1.27007e-07
1.391e-06
1.48603e-06
-4.10636e-07
1.52236e-06
7.62411e-07
1.48488e-06
-2.69675e-07
1.48531e-06
3.72663e-07
1.49436e-06
-8.48558e-07
1.51121e-06
5.9472e-07
1.48832e-06
-3.45134e-08
1.48341e-06
1.58459e-07
1.47379e-06
-2.68734e-07
1.48673e-06
8.93889e-09
1.48898e-06
3.68818e-10
1.49315e-06
2.59368e-08
1.4861e-06
-7.16437e-08
1.48651e-06
-1.96885e-08
1.48074e-06
7.64382e-08
1.47673e-06
-3.02549e-08
1.47758e-06
2.38276e-07
1.47123e-06
7.56431e-08
1.4696e-06
1.8474e-07
1.42083e-07
1.45452e-06
1.54903e-06
-4.13447e-07
1.58129e-06
7.30144e-07
1.55502e-06
-2.43404e-07
1.55239e-06
3.75292e-07
1.55348e-06
-8.49647e-07
1.56999e-06
5.7821e-07
1.55412e-06
-1.86462e-08
1.54963e-06
1.62956e-07
1.53915e-06
-2.58257e-07
1.54833e-06
-2.39048e-10
1.55128e-06
-2.58423e-09
1.55551e-06
2.17101e-08
1.5493e-06
-6.54332e-08
1.54956e-06
-1.99522e-08
1.54447e-06
8.15314e-08
1.54011e-06
-2.59e-08
1.54221e-06
2.3618e-07
1.53537e-06
8.24843e-08
1.53615e-06
1.83956e-07
1.5658e-07
1.52165e-06
1.61758e-06
-4.10899e-07
1.6438e-06
7.03924e-07
1.6276e-06
-2.272e-07
1.62451e-06
3.78382e-07
1.61863e-06
-8.43766e-07
1.63354e-06
5.633e-07
1.62426e-06
-9.37326e-09
1.622e-06
1.65217e-07
1.61096e-06
-2.47218e-07
1.61709e-06
-6.36532e-09
1.61918e-06
-4.67632e-09
1.62381e-06
1.7082e-08
1.61798e-06
-5.96063e-08
1.61812e-06
-2.00865e-08
1.61365e-06
8.59958e-08
1.60873e-06
-2.09795e-08
1.61193e-06
2.32985e-07
1.60461e-06
8.98035e-08
1.60747e-06
1.81096e-07
1.70017e-07
1.59403e-06
1.69203e-06
-4.05359e-07
1.71244e-06
6.83521e-07
1.70367e-06
-2.18435e-07
1.70194e-06
3.80114e-07
1.69053e-06
-8.32357e-07
1.70404e-06
5.49792e-07
1.69936e-06
-4.69829e-09
1.70004e-06
1.64538e-07
1.68862e-06
-2.35794e-07
1.69273e-06
-1.04734e-08
1.69327e-06
-5.2218e-09
1.69794e-06
1.24166e-08
1.69213e-06
-5.3796e-08
1.69219e-06
-2.01521e-08
1.68849e-06
8.9697e-08
1.68311e-06
-1.5601e-08
1.68756e-06
2.2854e-07
1.67972e-06
9.76426e-08
1.68418e-06
1.76634e-07
1.82126e-07
1.67207e-06
1.77193e-06
-3.98563e-07
1.78802e-06
6.67423e-07
1.7838e-06
-2.14207e-07
1.78411e-06
3.79805e-07
1.76876e-06
-8.1701e-07
1.78167e-06
5.36883e-07
1.77937e-06
-2.39938e-09
1.78271e-06
1.61194e-07
1.77098e-06
-2.24063e-07
1.77408e-06
-1.35726e-08
1.77304e-06
-4.18379e-09
1.77737e-06
8.09107e-09
1.77131e-06
-4.77406e-08
1.77132e-06
-2.01603e-08
1.76853e-06
9.24849e-08
1.76283e-06
-9.89461e-09
1.7687e-06
2.22662e-07
1.76035e-06
1.05997e-07
1.76582e-06
1.71159e-07
1.92662e-07
1.75529e-06
1.85661e-06
-3.9142e-07
1.87017e-06
6.53856e-07
1.86816e-06
-2.12195e-07
1.87039e-06
3.77571e-07
1.85246e-06
-7.99079e-07
1.86556e-06
5.23785e-07
1.86394e-06
-7.81965e-10
1.8693e-06
1.55841e-07
1.85722e-06
-2.11986e-07
1.86007e-06
-1.64193e-08
1.85774e-06
-1.85288e-09
1.86159e-06
4.23236e-09
1.85522e-06
-4.1363e-08
1.85506e-06
-2.00067e-08
1.85326e-06
9.4286e-08
1.8472e-06
-3.82953e-09
1.85451e-06
2.1535e-07
1.84575e-06
1.14756e-07
1.85159e-06
1.65322e-07
2.01322e-07
1.84293e-06
1.94566e-06
-3.84239e-07
1.95811e-06
6.41408e-07
1.95682e-06
-2.10908e-07
1.96058e-06
3.73812e-07
1.94096e-06
-7.79461e-07
1.95475e-06
5.0999e-07
1.95281e-06
1.1581e-09
1.95959e-06
1.4907e-07
1.94707e-06
-1.9947e-07
1.95011e-06
-1.94547e-08
1.94685e-06
1.40237e-09
1.9503e-06
7.78619e-10
1.94371e-06
-3.4769e-08
1.94321e-06
-1.95035e-08
1.94239e-06
9.50982e-08
1.93582e-06
2.74814e-09
1.94433e-06
2.06835e-07
1.93541e-06
1.2368e-07
1.94095e-06
1.59782e-07
2.07778e-07
1.93449e-06
2.03899e-06
-3.77038e-07
2.0512e-06
6.29197e-07
2.04983e-06
-2.09543e-07
2.05477e-06
3.68877e-07
2.03393e-06
-7.58624e-07
2.04865e-06
4.95272e-07
2.04592e-06
3.89217e-09
2.05373e-06
1.41254e-07
2.04069e-06
-1.86432e-07
2.0441e-06
-2.28629e-08
2.04024e-06
5.26293e-09
2.04339e-06
-2.36992e-09
2.0368e-06
-2.81742e-08
2.03574e-06
-1.84456e-08
2.03588e-06
9.4953e-08
2.02867e-06
9.96226e-09
2.03797e-06
1.97533e-07
2.02922e-06
1.32428e-07
2.0339e-06
1.551e-07
2.11816e-07
2.02987e-06
2.13672e-06
-3.69758e-07
2.14915e-06
6.16765e-07
2.14734e-06
-2.0773e-07
2.15324e-06
3.62981e-07
2.13137e-06
-7.36762e-07
2.14708e-06
4.79563e-07
2.14339e-06
7.58208e-09
2.15205e-06
1.32594e-07
2.13845e-06
-1.72827e-07
2.14224e-06
-2.66591e-08
2.13802e-06
9.48582e-09
2.1409e-06
-5.25007e-09
2.13456e-06
-2.18321e-08
2.13277e-06
-1.66576e-08
2.13383e-06
9.38943e-08
2.12598e-06
1.7812e-08
2.13558e-06
1.87935e-07
2.1274e-06
1.40607e-07
2.13084e-06
1.51663e-07
2.13426e-07
2.12923e-06
2.23907e-06
-3.62342e-07
2.25193e-06
6.03906e-07
2.24953e-06
-2.05331e-07
2.25627e-06
3.56246e-07
2.23345e-06
-7.13942e-07
2.25015e-06
4.62859e-07
2.24549e-06
1.22427e-08
2.25489e-06
1.23193e-07
2.24072e-06
-1.58656e-07
2.24482e-06
-3.07594e-08
2.24043e-06
1.38816e-08
2.24299e-06
-7.81376e-09
2.23714e-06
-1.59854e-08
2.2345e-06
-1.40176e-08
2.2364e-06
9.1998e-08
2.22807e-06
2.61417e-08
2.23746e-06
1.78543e-07
2.23023e-06
1.47839e-07
2.2323e-06
1.49596e-07
2.12874e-07
2.23285e-06
2.34629e-06
-3.54756e-07
2.35965e-06
5.90542e-07
2.35664e-06
-2.0232e-07
2.36414e-06
3.48751e-07
2.34039e-06
-6.90191e-07
2.35807e-06
4.45177e-07
2.35249e-06
1.78273e-08
2.36255e-06
1.13126e-07
2.34786e-06
-1.43968e-07
2.35213e-06
-3.50259e-08
2.34773e-06
1.82843e-08
2.34986e-06
-9.94614e-09
2.34471e-06
-1.08348e-08
2.34117e-06
-1.0477e-08
2.34376e-06
8.94064e-08
2.33523e-06
3.4674e-08
2.34394e-06
1.69831e-07
2.33797e-06
1.53812e-07
2.33876e-06
1.48805e-07
2.10612e-07
2.34102e-06
2.45862e-06
-3.46983e-07
2.47251e-06
5.76652e-07
2.46892e-06
-1.98729e-07
2.47711e-06
3.40564e-07
2.45245e-06
-6.65535e-07
2.47107e-06
4.26554e-07
2.46464e-06
2.42639e-08
2.4753e-06
1.02467e-07
2.46019e-06
-1.28856e-07
2.46445e-06
-3.92931e-08
2.4602e-06
2.25322e-08
2.46176e-06
-1.14991e-08
2.45743e-06
-6.51216e-09
2.45304e-06
-6.08125e-09
2.45611e-06
8.63358e-08
2.44769e-06
4.30935e-08
2.45534e-06
1.62181e-07
2.45081e-06
1.58344e-07
2.45057e-06
1.4904e-07
2.07165e-07
2.45402e-06
2.57633e-06
-3.39018e-07
2.59073e-06
5.62254e-07
2.58661e-06
-1.94612e-07
2.59543e-06
3.31747e-07
2.56991e-06
-6.40019e-07
2.58941e-06
4.0706e-07
2.5822e-06
3.14665e-08
2.59336e-06
9.13067e-08
2.57797e-06
-1.13461e-07
2.58206e-06
-4.33842e-08
2.57813e-06
2.64598e-08
2.57896e-06
-1.23225e-08
2.57551e-06
-3.06829e-09
2.57039e-06
-9.58781e-10
2.57366e-06
8.30644e-08
2.56566e-06
5.1096e-08
2.57203e-06
1.55809e-07
2.56892e-06
1.61458e-07
2.56802e-06
1.4994e-07
2.03036e-07
2.57215e-06
2.69968e-06
-3.30871e-07
2.71455e-06
5.47388e-07
2.70997e-06
-1.9004e-07
2.71936e-06
3.22364e-07
2.69305e-06
-6.13712e-07
2.71332e-06
3.8679e-07
2.70545e-06
3.93409e-08
2.717e-06
7.97557e-08
2.70149e-06
-9.79568e-08
2.70522e-06
-4.71164e-08
2.70178e-06
2.99016e-08
2.70175e-06
-1.22902e-08
2.69916e-06
-4.75444e-10
2.6935e-06
4.70058e-09
2.69666e-06
7.99037e-08
2.68932e-06
5.84299e-08
2.69441e-06
1.50725e-07
2.69249e-06
1.63377e-07
2.69133e-06
1.51099e-07
1.98623e-07
2.69574e-06
2.82896e-06
-3.22559e-07
2.84423e-06
5.32113e-07
2.83928e-06
-1.85089e-07
2.84915e-06
3.12491e-07
2.82215e-06
-5.86708e-07
2.84308e-06
3.65861e-07
2.83464e-06
4.77842e-08
2.84644e-06
6.79475e-08
2.83103e-06
-8.25386e-08
2.83422e-06
-5.03073e-08
2.83141e-06
3.27059e-08
2.83045e-06
-1.13257e-08
2.8286e-06
1.37036e-09
2.82263e-06
1.06731e-08
2.8254e-06
7.71347e-08
2.81888e-06
6.49496e-08
2.82283e-06
1.46778e-07
2.82179e-06
1.64419e-07
2.82071e-06
1.52177e-07
1.94163e-07
2.82517e-06
2.96445e-06
-3.14109e-07
2.98006e-06
5.165e-07
2.97482e-06
-1.79847e-07
2.98509e-06
3.02214e-07
2.95751e-06
-5.59126e-07
2.97897e-06
3.44404e-07
2.97007e-06
5.66851e-08
2.98198e-06
5.6032e-08
2.96685e-06
-6.74116e-08
2.96933e-06
-5.27804e-08
2.96729e-06
3.47481e-08
2.96537e-06
-9.41082e-09
2.96412e-06
2.62253e-09
2.95805e-06
1.6742e-08
2.96021e-06
7.49739e-08
2.95455e-06
7.06089e-08
2.95758e-06
1.43745e-07
2.95714e-06
1.64867e-07
2.95634e-06
1.52968e-07
1.89721e-07
2.96079e-06
3.10645e-06
-3.05552e-07
3.12232e-06
5.00632e-07
3.11688e-06
-1.74412e-07
3.12746e-06
2.91638e-07
3.09943e-06
-5.31096e-07
3.12128e-06
3.22558e-07
3.11204e-06
6.59252e-08
3.1239e-06
4.4169e-08
3.10927e-06
-5.2778e-08
3.11086e-06
-5.43747e-08
3.10966e-06
3.59432e-08
3.10684e-06
-6.58632e-09
3.10599e-06
3.47012e-09
3.10003e-06
2.27049e-08
3.10142e-06
7.35793e-08
3.09659e-06
7.54451e-08
3.09895e-06
1.41385e-07
3.09891e-06
1.64901e-07
3.09845e-06
1.53427e-07
1.85239e-07
3.10294e-06
3.25528e-06
-2.96924e-07
3.27131e-06
4.846e-07
3.2658e-06
-1.68897e-07
3.27656e-06
2.80879e-07
3.24822e-06
-5.02759e-07
3.27032e-06
3.00457e-07
3.26086e-06
7.53865e-08
3.27251e-06
3.25181e-08
3.25856e-06
-3.88288e-08
3.25914e-06
-5.49493e-08
3.25884e-06
3.62425e-08
3.25517e-06
-2.92438e-09
3.25454e-06
4.10024e-09
3.24885e-06
2.8398e-08
3.24939e-06
7.30436e-08
3.24528e-06
7.95508e-08
3.24719e-06
1.39479e-07
3.24749e-06
1.64595e-07
3.24729e-06
1.53632e-07
1.80612e-07
3.25192e-06
3.41127e-06
-2.88261e-07
3.42737e-06
4.68501e-07
3.42189e-06
-1.63424e-07
3.43272e-06
2.70057e-07
3.4042e-06
-4.74245e-07
3.42643e-06
2.7823e-07
3.41686e-06
8.49579e-08
3.42814e-06
2.12314e-08
3.41505e-06
-2.57385e-08
3.41449e-06
-5.43871e-08
3.4151e-06
3.5631e-08
3.41069e-06
1.4886e-09
3.41011e-06
4.67993e-09
3.4048e-06
3.37045e-08
3.40445e-06
7.34002e-08
3.401e-06
8.29987e-08
3.40261e-06
1.37872e-07
3.40323e-06
1.6397e-07
3.40317e-06
1.53692e-07
1.7579e-07
3.40799e-06
3.57475e-06
-2.79601e-07
3.59081e-06
4.52441e-07
3.58551e-06
-1.58121e-07
3.59628e-06
2.59286e-07
3.5677e-06
-4.45671e-07
3.58995e-06
2.55983e-07
3.58036e-06
9.45449e-08
3.59115e-06
1.04462e-08
3.57908e-06
-1.3666e-08
3.57728e-06
-5.25889e-08
3.57879e-06
3.41221e-08
3.57372e-06
6.55466e-09
3.57304e-06
5.36663e-09
3.5682e-06
3.85384e-08
3.56698e-06
7.46213e-08
3.56408e-06
8.58957e-08
3.56555e-06
1.36405e-07
3.56647e-06
1.63045e-07
3.5665e-06
1.5367e-07
1.70851e-07
3.57144e-06
3.74609e-06
-2.70983e-07
3.762e-06
4.36528e-07
3.75699e-06
-1.5311e-07
3.76762e-06
2.48661e-07
3.73907e-06
-4.17124e-07
3.76126e-06
2.33797e-07
3.75173e-06
1.04073e-07
3.76188e-06
2.88953e-10
3.75098e-06
-2.76498e-09
3.74786e-06
-4.94605e-08
3.75023e-06
3.17435e-08
3.74462e-06
1.21717e-08
3.74367e-06
6.31696e-09
3.7394e-06
4.28055e-08
3.73738e-06
7.66393e-08
3.73487e-06
8.84103e-08
3.73635e-06
1.34918e-07
3.73758e-06
1.61813e-07
3.73768e-06
1.53571e-07
1.65984e-07
3.74255e-06
3.92565e-06
-2.62447e-07
3.94131e-06
4.20868e-07
3.9367e-06
-1.48496e-07
3.94713e-06
2.38232e-07
3.91865e-06
-3.88651e-07
3.94073e-06
2.11718e-07
3.93131e-06
1.13489e-07
3.94072e-06
-9.11936e-09
3.93115e-06
6.80321e-09
3.92659e-06
-4.4896e-08
3.92981e-06
2.85186e-08
3.92376e-06
1.82275e-08
3.92235e-06
7.72203e-09
3.91878e-06
4.63755e-08
3.91606e-06
7.93617e-08
3.91371e-06
9.07637e-08
3.91536e-06
1.33267e-07
3.91693e-06
1.60244e-07
3.91715e-06
1.53346e-07
1.61402e-07
3.92174e-06
4.11383e-06
-2.54029e-07
4.12914e-06
4.05564e-07
4.12499e-06
-1.44354e-07
4.13523e-06
2.27998e-07
4.10682e-06
-3.60244e-07
4.12878e-06
1.89757e-07
4.11951e-06
1.22757e-07
4.12804e-06
-1.76492e-08
4.11999e-06
1.48613e-08
4.11388e-06
-3.87893e-08
4.11789e-06
2.45096e-08
4.11159e-06
2.45233e-08
4.10945e-06
9.86575e-09
4.1067e-06
4.91246e-08
4.10347e-06
8.2593e-08
4.10104e-06
9.31962e-08
4.10291e-06
1.3139e-07
4.10488e-06
1.58274e-07
4.10531e-06
1.52918e-07
1.57235e-07
4.10948e-06
4.31104e-06
-2.45763e-07
4.3259e-06
3.90701e-07
4.32226e-06
-1.40714e-07
4.33236e-06
2.17893e-07
4.30397e-06
-3.31848e-07
4.32583e-06
1.679e-07
4.31675e-06
1.31829e-07
4.32424e-06
-2.51359e-08
4.31789e-06
2.12079e-08
4.31016e-06
-3.10523e-08
4.3148e-06
1.98664e-08
4.3086e-06
3.07272e-08
4.30534e-06
1.31242e-08
4.30348e-06
5.09828e-08
4.30007e-06
8.60064e-08
4.29734e-06
9.59192e-08
4.29939e-06
1.29346e-07
4.30183e-06
1.55829e-07
4.30253e-06
1.5222e-07
1.5347e-07
4.30629e-06
4.51769e-06
-2.37677e-07
4.53204e-06
3.76344e-07
4.52889e-06
-1.37557e-07
4.53899e-06
2.07786e-07
4.51051e-06
-3.03364e-07
4.53229e-06
1.46122e-07
4.52348e-06
1.40637e-07
4.52971e-06
-3.13676e-08
4.52529e-06
2.56286e-08
4.5159e-06
-2.1662e-08
4.52089e-06
1.48798e-08
4.51524e-06
3.63709e-08
4.5105e-06
1.78671e-08
4.50944e-06
5.20481e-08
4.50628e-06
8.91602e-08
4.50317e-06
9.90271e-08
4.5052e-06
1.27319e-07
4.50819e-06
1.5284e-07
4.5092e-06
1.51207e-07
1.50017e-07
4.51266e-06
4.73423e-06
-2.2979e-07
4.74805e-06
3.62527e-07
4.74529e-06
-1.34801e-07
4.75559e-06
1.97481e-07
4.7269e-06
-2.74666e-07
4.7486e-06
1.24419e-07
4.74018e-06
1.49053e-07
4.74487e-06
-3.60534e-08
4.7426e-06
2.79008e-08
4.73167e-06
-1.07324e-08
4.73651e-06
1.00403e-08
4.73195e-06
4.09248e-08
4.7256e-06
2.42181e-08
4.72494e-06
5.27112e-08
4.72251e-06
9.15926e-08
4.71909e-06
1.0244e-07
4.72083e-06
1.25585e-07
4.72437e-06
1.49294e-07
4.72578e-06
1.498e-07
1.46818e-07
4.72898e-06
4.96112e-06
-2.22113e-07
4.9744e-06
3.49247e-07
4.9719e-06
-1.32302e-07
4.98266e-06
1.86724e-07
4.95361e-06
-2.45619e-07
4.97519e-06
1.02836e-07
4.96738e-06
1.56866e-07
4.97016e-06
-3.88287e-08
4.9702e-06
2.78553e-08
4.95805e-06
1.42229e-09
4.96206e-06
6.0249e-09
4.9591e-06
4.38881e-08
4.95133e-06
3.19923e-08
4.95044e-06
5.35974e-08
4.94908e-06
9.2954e-08
4.94565e-06
1.05872e-07
4.94683e-06
1.24402e-07
4.95078e-06
1.45339e-07
4.95277e-06
1.47816e-07
1.43871e-07
4.95571e-06
5.19885e-06
-2.14642e-07
5.21164e-06
3.36457e-07
5.20919e-06
-1.29854e-07
5.22068e-06
1.75228e-07
5.19118e-06
-2.1612e-07
5.21251e-06
8.15122e-08
5.20562e-06
1.63753e-07
5.20608e-06
-3.92879e-08
5.20848e-06
2.54529e-08
5.19563e-06
1.42702e-08
5.19805e-06
3.60807e-09
5.19702e-06
4.49183e-08
5.1883e-06
4.07164e-08
5.18653e-06
5.53687e-08
5.18636e-06
9.31238e-08
5.18331e-06
1.08917e-07
5.18381e-06
1.23903e-07
5.18788e-06
1.41272e-07
5.19062e-06
1.45068e-07
1.41123e-07
5.19337e-06
5.44791e-06
-2.07362e-07
5.4603e-06
3.24066e-07
5.45765e-06
-1.272e-07
5.47018e-06
1.62697e-07
5.44019e-06
-1.86133e-07
5.46098e-06
6.07192e-08
5.45547e-06
1.69265e-07
5.45322e-06
-3.70397e-08
5.45782e-06
2.08561e-08
5.44499e-06
2.71016e-08
5.44511e-06
3.48361e-09
5.446e-06
4.40319e-08
5.4371e-06
4.96197e-08
5.43393e-06
5.85337e-08
5.43472e-06
9.23371e-08
5.43254e-06
1.11099e-07
5.43242e-06
1.24016e-07
5.4362e-06
1.37495e-07
5.43975e-06
1.41517e-07
1.3835e-07
5.44252e-06
5.70884e-06
-2.00241e-07
5.72097e-06
3.11929e-07
5.71781e-06
-1.24038e-07
5.73163e-06
1.48876e-07
5.70125e-06
-1.55747e-07
5.72108e-06
4.08834e-08
5.71749e-06
1.72859e-07
5.71226e-06
-3.18092e-08
5.71863e-06
1.44783e-08
5.70662e-06
3.91153e-08
5.70401e-06
6.09144e-09
5.70643e-06
4.16147e-08
5.69816e-06
5.78889e-08
5.69348e-06
6.32197e-08
5.69465e-06
9.11593e-08
5.69371e-06
1.1204e-07
5.6933e-06
1.24423e-07
5.69644e-06
1.34356e-07
5.70055e-06
1.37407e-07
1.35211e-07
5.70369e-06
5.98219e-06
-1.93238e-07
5.99425e-06
2.99865e-07
5.99026e-06
-1.20044e-07
6.00552e-06
1.33614e-07
5.97501e-06
-1.25237e-07
5.99334e-06
2.25585e-08
5.99219e-06
1.74001e-07
5.98392e-06
-2.35381e-08
5.9914e-06
7.00213e-09
5.98102e-06
4.9497e-08
5.97554e-06
1.15655e-08
5.9788e-06
3.83607e-08
5.97194e-06
6.47518e-08
5.96588e-06
6.92774e-08
5.96684e-06
9.01955e-08
5.96722e-06
1.11657e-07
5.967e-06
1.24647e-07
5.96938e-06
1.31974e-07
5.97355e-06
1.33241e-07
1.31439e-07
5.97732e-06
6.26855e-06
-1.86295e-07
6.28075e-06
2.87665e-07
6.2756e-06
-1.14901e-07
6.29231e-06
1.1691e-07
6.26217e-06
-9.51019e-08
6.27835e-06
6.38019e-09
6.28006e-06
1.72294e-07
6.269e-06
-1.24822e-08
6.27669e-06
-6.83209e-10
6.26861e-06
5.75715e-08
6.26053e-06
1.96459e-08
6.26369e-06
3.52056e-08
6.25883e-06
6.96133e-08
6.25186e-06
7.62466e-08
6.25203e-06
9.00227e-08
6.25356e-06
1.10127e-07
6.25397e-06
1.24238e-07
6.25577e-06
1.30173e-07
6.25953e-06
1.29485e-07
1.27123e-07
6.26384e-06
6.56852e-06
-1.7935e-07
6.58107e-06
2.75116e-07
6.5745e-06
-1.08327e-07
6.59247e-06
9.89407e-08
6.56341e-06
-6.60437e-08
6.5768e-06
-7.00903e-09
6.58153e-06
1.67564e-07
6.56822e-06
8.25847e-10
6.57517e-06
-7.63314e-09
6.56982e-06
6.29266e-08
6.55971e-06
2.97561e-08
6.56191e-06
3.30021e-08
6.55925e-06
7.22711e-08
6.55205e-06
8.34462e-08
6.55105e-06
9.10236e-08
6.55333e-06
1.07847e-07
6.55466e-06
1.22904e-07
6.55623e-06
1.28603e-07
6.5594e-06
1.26319e-07
1.22711e-07
6.56381e-06
6.88278e-06
-1.72337e-07
6.89586e-06
2.6203e-07
6.88765e-06
-1.00115e-07
6.90656e-06
8.00336e-08
6.87938e-06
-3.88638e-08
6.88945e-06
-1.70843e-08
6.89705e-06
1.5997e-07
6.88227e-06
1.55982e-08
6.88763e-06
-1.29854e-08
6.8851e-06
6.54583e-08
6.87374e-06
4.11102e-08
6.87426e-06
3.24792e-08
6.87379e-06
7.27501e-08
6.86704e-06
9.01941e-08
6.86474e-06
9.33246e-08
6.86725e-06
1.0533e-07
6.86962e-06
1.20538e-07
6.8713e-06
1.26925e-07
6.87398e-06
1.23639e-07
1.18621e-07
6.87807e-06
7.21199e-06
-1.65191e-07
7.22576e-06
2.48257e-07
7.21584e-06
-9.01884e-08
7.23519e-06
6.06814e-08
7.2107e-06
-1.43754e-08
7.21714e-06
-2.35205e-08
7.22717e-06
1.49938e-07
7.21183e-06
3.09341e-08
7.21487e-06
-1.60267e-08
7.21504e-06
6.52959e-08
7.20325e-06
5.28973e-08
7.20169e-06
3.40439e-08
7.20297e-06
7.14635e-08
7.19739e-06
9.57783e-08
7.19394e-06
9.67684e-08
7.1961e-06
1.03175e-07
7.19945e-06
1.17188e-07
7.20154e-06
1.24832e-07
7.20387e-06
1.21311e-07
1.14966e-07
7.20752e-06
7.55689e-06
-1.57858e-07
7.57145e-06
2.33703e-07
7.5599e-06
-7.86394e-08
7.57909e-06
4.1492e-08
7.55796e-06
6.74895e-09
7.56072e-06
-2.62781e-08
7.57257e-06
1.38085e-07
7.55749e-06
4.6014e-08
7.55784e-06
-1.6375e-08
7.56027e-06
6.28665e-08
7.54894e-06
6.42301e-08
7.54504e-06
3.79409e-08
7.54746e-06
6.90493e-08
7.54366e-06
9.95724e-08
7.53949e-06
1.00938e-07
7.54071e-06
1.01958e-07
7.54482e-06
1.13082e-07
7.54763e-06
1.22015e-07
7.54974e-06
1.19208e-07
1.11723e-07
7.55298e-06
7.91826e-06
-1.50304e-07
7.93361e-06
2.18355e-07
7.92077e-06
-6.58007e-08
7.93907e-06
2.31897e-08
7.92169e-06
2.41283e-08
7.92109e-06
-2.56755e-08
7.93406e-06
1.25113e-07
7.91987e-06
6.02054e-08
7.9174e-06
-1.39084e-08
7.92156e-06
5.87034e-08
7.91147e-06
7.43293e-08
7.90525e-06
4.41598e-08
7.90803e-06
6.62635e-08
7.90643e-06
1.01178e-07
7.90208e-06
1.05288e-07
7.90213e-06
1.01904e-07
7.90641e-06
1.08805e-07
7.91021e-06
1.18215e-07
7.91238e-06
1.17035e-07
1.08921e-07
7.91518e-06
8.29689e-06
-1.4251e-07
8.31297e-06
2.02276e-07
8.29931e-06
-5.21435e-08
8.31597e-06
6.52404e-09
8.30248e-06
3.76183e-08
8.29908e-06
-2.22752e-08
8.31247e-06
1.11726e-07
8.29967e-06
7.30031e-08
8.2944e-06
-8.63405e-09
8.29975e-06
5.33534e-08
8.29146e-06
8.26193e-08
8.28335e-06
5.22709e-08
8.28565e-06
6.39577e-08
8.28618e-06
1.00652e-07
8.28241e-06
1.09053e-07
8.28141e-06
1.02906e-07
8.28514e-06
1.05073e-07
8.28991e-06
1.13453e-07
8.29249e-06
1.14448e-07
1.06434e-07
8.29498e-06
8.69363e-06
-1.3448e-07
8.71031e-06
1.85595e-07
8.69633e-06
-3.81563e-08
8.71073e-06
-7.88139e-09
8.70102e-06
4.73269e-08
8.69551e-06
-1.67651e-08
8.70874e-06
9.84975e-08
8.69772e-06
8.40273e-08
8.68974e-06
-6.54847e-10
8.6956e-06
4.74905e-08
8.68967e-06
8.85501e-08
8.68031e-06
6.16293e-08
8.68131e-06
6.29581e-08
8.68366e-06
9.83005e-08
8.68113e-06
1.11591e-07
8.67944e-06
1.04596e-07
8.68219e-06
1.02316e-07
8.68738e-06
1.08269e-07
8.69084e-06
1.10981e-07
1.04139e-07
8.69314e-06
9.10938e-06
-1.26238e-07
9.12647e-06
1.685e-07
9.11264e-06
-2.43265e-08
9.12436e-06
-1.96046e-08
9.11813e-06
5.35647e-08
9.11111e-06
-9.74926e-09
9.12385e-06
8.57594e-08
9.11485e-06
9.30259e-08
9.10437e-06
9.83035e-09
9.11e-06
4.1859e-08
9.10688e-06
9.16672e-08
9.0969e-06
7.16134e-08
9.09615e-06
6.37025e-08
9.09983e-06
9.46245e-08
9.09887e-06
1.12551e-07
9.09691e-06
1.06552e-07
9.09871e-06
1.00512e-07
9.10363e-06
1.03356e-07
9.10808e-06
1.06531e-07
1.01718e-07
9.1105e-06
9.54505e-06
-1.17823e-07
9.56232e-06
1.51223e-07
9.54909e-06
-1.10919e-08
9.55797e-06
-2.84897e-08
9.55472e-06
5.68155e-08
9.54666e-06
-1.68445e-09
9.55865e-06
7.37675e-08
9.55201e-06
9.9667e-08
9.53944e-06
2.23961e-08
9.54381e-06
3.74947e-08
9.54365e-06
9.18278e-08
9.53403e-06
8.12302e-08
9.53139e-06
6.63421e-08
9.53557e-06
9.04437e-08
9.53638e-06
1.11738e-07
9.53469e-06
1.08247e-07
9.53555e-06
9.96464e-08
9.53993e-06
9.89807e-08
9.54482e-06
1.01639e-07
9.86188e-08
9.54792e-06
1.00016e-05
-1.09287e-07
1.00188e-05
1.34011e-07
1.00065e-05
1.17548e-09
1.00126e-05
-3.45796e-08
1.00118e-05
5.76423e-08
1.00031e-05
7.05282e-09
1.00141e-05
6.27746e-08
1.00101e-05
1.03592e-07
9.99603e-06
3.65034e-08
9.99822e-06
3.53033e-08
1.00007e-05
8.93604e-08
9.99256e-06
8.93575e-08
9.98811e-06
7.07917e-08
9.99198e-06
8.6575e-08
9.99457e-06
1.09149e-07
9.99354e-06
1.09281e-07
9.99373e-06
9.94501e-08
9.99733e-06
9.53854e-08
1.00022e-05
9.67343e-08
9.46846e-08
1.00062e-05
1.048e-05
-1.00695e-07
1.04969e-05
1.17118e-07
1.04859e-05
1.21806e-08
1.04894e-05
-3.80164e-08
1.04904e-05
5.6577e-08
1.04813e-05
1.61544e-08
1.04911e-05
5.30577e-08
1.04901e-05
1.04572e-07
1.04754e-05
5.12147e-08
1.04746e-05
3.60806e-08
1.0479e-05
8.4964e-08
1.04731e-05
9.52399e-08
1.04675e-05
7.64047e-08
1.04703e-05
8.37573e-08
1.04743e-05
1.052e-07
1.04744e-05
1.09118e-07
1.04742e-05
9.96801e-08
1.0477e-05
9.25257e-08
1.04817e-05
9.2057e-08
9.03935e-08
1.0486e-05
1.09814e-05
-9.21169e-08
1.09978e-05
1.008e-07
1.09882e-05
2.16953e-08
1.09893e-05
-3.90503e-08
1.09917e-05
5.41146e-08
1.09826e-05
2.53197e-08
1.09906e-05
4.50362e-08
1.09926e-05
1.02522e-07
1.09784e-05
6.54192e-08
1.09745e-05
4.00728e-08
1.09796e-05
7.97704e-08
1.09764e-05
9.8453e-08
1.09705e-05
8.2341e-08
1.09719e-05
8.23877e-08
1.09765e-05
1.00582e-07
1.09782e-05
1.07424e-07
1.09779e-05
9.99382e-08
1.098e-05
9.04039e-08
1.09844e-05
8.76878e-08
8.60676e-08
1.09887e-05
1.15069e-05
-8.36234e-08
1.15224e-05
8.52715e-08
1.15145e-05
2.95918e-08
1.15134e-05
-3.79654e-08
1.15169e-05
5.05954e-08
1.15081e-05
3.42049e-08
1.15138e-05
3.92471e-08
1.15187e-05
9.77029e-08
1.15061e-05
7.79421e-08
1.14993e-05
4.68631e-08
1.1504e-05
7.50721e-08
1.15034e-05
9.90766e-08
1.1498e-05
8.7722e-08
1.1498e-05
8.23864e-08
1.15026e-05
9.59962e-08
1.15057e-05
1.04396e-07
1.1506e-05
9.95465e-08
1.15073e-05
8.91651e-08
1.15112e-05
8.37553e-08
8.17943e-08
1.15155e-05
1.20575e-05
-7.52852e-08
1.2072e-05
7.07438e-08
1.20658e-05
3.58137e-08
1.20629e-05
-3.50841e-08
1.20672e-05
4.63291e-08
1.20589e-05
4.2454e-08
1.20621e-05
3.60974e-08
1.2069e-05
9.07404e-08
1.20594e-05
8.75989e-08
1.20505e-05
5.57295e-08
1.20536e-05
7.20293e-08
1.20552e-05
9.74239e-08
1.20511e-05
9.18301e-08
1.20501e-05
8.34081e-08
1.20541e-05
9.19742e-08
1.2058e-05
1.00512e-07
1.20595e-05
9.80774e-08
1.20602e-05
8.84531e-08
1.20633e-05
8.06516e-08
7.75895e-08
1.20675e-05
1.26345e-05
-6.7172e-08
1.26478e-05
5.73822e-08
1.26433e-05
4.03752e-08
1.26389e-05
-3.07011e-08
1.26436e-05
4.15756e-08
1.26364e-05
4.97502e-08
1.26368e-05
3.56126e-08
1.26449e-05
8.27095e-08
1.26389e-05
9.35557e-08
1.26291e-05
6.55468e-08
1.26299e-05
7.1204e-08
1.2633e-05
9.43434e-08
1.26306e-05
9.42698e-08
1.26292e-05
8.4797e-08
1.26324e-05
8.87525e-08
1.26367e-05
9.62465e-08
1.26391e-05
9.56475e-08
1.264e-05
8.7559e-08
1.26421e-05
7.85823e-08
7.36999e-08
1.26459e-05
1.32391e-05
-5.93456e-08
1.32512e-05
4.53005e-08
1.32482e-05
4.33584e-08
1.32427e-05
-2.51549e-08
1.32475e-05
3.66898e-08
1.32417e-05
5.5595e-08
1.32396e-05
3.77021e-08
1.32476e-05
7.46998e-08
1.32455e-05
9.56857e-08
1.32361e-05
7.48969e-08
1.32348e-05
7.25792e-08
1.3238e-05
9.10775e-08
1.32376e-05
9.4702e-08
1.32363e-05
8.6068e-08
1.32389e-05
8.6192e-08
1.32432e-05
9.19838e-08
1.32463e-05
9.2489e-08
1.32478e-05
8.60955e-08
1.32492e-05
7.71882e-08
7.05616e-08
1.32523e-05
1.38727e-05
-5.1867e-08
1.38834e-05
3.45779e-08
1.38819e-05
4.4916e-08
1.38755e-05
-1.88031e-08
1.38802e-05
3.20014e-08
1.38761e-05
5.97308e-08
1.3872e-05
4.17848e-08
1.38788e-05
6.7824e-08
1.38801e-05
9.44674e-08
1.38726e-05
8.23699e-08
1.38694e-05
7.5738e-08
1.38721e-05
8.84389e-08
1.38732e-05
9.35723e-08
1.38726e-05
8.66242e-08
1.38748e-05
8.40833e-08
1.38789e-05
8.78771e-08
1.38824e-05
8.89597e-08
1.38846e-05
8.38741e-08
1.38859e-05
7.58491e-08
6.84421e-08
1.38881e-05
1.45366e-05
-4.47976e-08
1.45459e-05
2.52952e-08
1.45457e-05
4.51389e-08
1.45387e-05
-1.18936e-08
1.45429e-05
2.78209e-08
1.45407e-05
6.19639e-08
1.45354e-05
4.70451e-08
1.45403e-05
6.2999e-08
1.4544e-05
9.07481e-08
1.45392e-05
8.71732e-08
1.45353e-05
7.96244e-08
1.45369e-05
8.68672e-08
1.45387e-05
9.1757e-08
1.45392e-05
8.60861e-08
1.45411e-05
8.21741e-08
1.45451e-05
8.38645e-08
1.45488e-05
8.52733e-08
1.45513e-05
8.13746e-08
1.45531e-05
7.40761e-08
6.68619e-08
1.45547e-05
1.52323e-05
-3.82018e-08
1.52401e-05
1.75001e-08
1.52411e-05
4.41612e-08
1.52339e-05
-4.70269e-09
1.52372e-05
2.44436e-08
1.52369e-05
6.22828e-08
1.52313e-05
5.26639e-08
1.52338e-05
6.0521e-08
1.52388e-05
8.57226e-08
1.52369e-05
8.91109e-08
1.52335e-05
8.30067e-08
1.52339e-05
8.64242e-08
1.52358e-05
8.99131e-08
1.52371e-05
8.47891e-08
1.52393e-05
7.99885e-08
1.52431e-05
8.0033e-08
1.52472e-05
8.12094e-08
1.52497e-05
7.88157e-08
1.52516e-05
7.22021e-08
6.5274e-08
1.52532e-05
1.59613e-05
-3.21501e-08
1.59676e-05
1.12165e-08
1.59696e-05
4.21495e-08
1.59624e-05
2.47318e-09
1.59647e-05
2.2104e-08
1.59661e-05
6.09447e-08
1.5961e-05
5.77677e-08
1.59613e-05
6.01547e-08
1.59663e-05
8.07318e-08
1.5967e-05
8.84375e-08
1.59649e-05
8.50647e-08
1.59649e-05
8.64872e-08
1.59664e-05
8.84345e-08
1.59678e-05
8.33326e-08
1.59703e-05
7.74845e-08
1.59742e-05
7.62018e-08
1.59785e-05
7.68337e-08
1.59815e-05
7.58613e-08
1.59831e-05
7.05751e-08
6.36499e-08
1.59847e-05
1.67252e-05
-2.67075e-08
1.67299e-05
6.45852e-09
1.67328e-05
3.92762e-08
1.6726e-05
9.29579e-09
1.6727e-05
2.10301e-08
1.67297e-05
5.83106e-08
1.67258e-05
6.16754e-08
1.67245e-05
6.13944e-08
1.67286e-05
7.6655e-08
1.67312e-05
8.58399e-08
1.67308e-05
8.5419e-08
1.67311e-05
8.62828e-08
1.67321e-05
8.73735e-08
1.67334e-05
8.20391e-08
1.67358e-05
7.50971e-08
1.67397e-05
7.22521e-08
1.67442e-05
7.23713e-08
1.67479e-05
7.21439e-08
1.67496e-05
6.89294e-08
6.22438e-08
1.6751e-05
1.75256e-05
-2.19276e-08
1.75289e-05
3.18261e-09
1.75323e-05
3.5783e-08
1.75262e-05
1.5399e-08
1.7526e-05
2.13252e-08
1.75294e-05
5.48939e-08
1.75271e-05
6.39012e-08
1.7525e-05
6.35568e-08
1.75278e-05
7.38821e-08
1.75313e-05
8.23214e-08
1.75326e-05
8.41162e-08
1.75337e-05
8.5172e-08
1.75347e-05
8.63191e-08
1.75357e-05
8.10753e-08
1.75376e-05
7.31698e-08
1.75413e-05
6.85469e-08
1.75459e-05
6.77633e-08
1.75502e-05
6.78365e-08
1.75527e-05
6.65119e-08
6.11127e-08
1.75538e-05
1.83643e-05
-1.78398e-08
1.83662e-05
1.27867e-09
1.837e-05
3.19724e-08
1.83649e-05
2.04564e-08
1.83634e-05
2.28521e-08
1.8367e-05
5.13166e-08
1.83665e-05
6.43846e-08
1.83643e-05
6.57313e-08
1.83657e-05
7.24482e-08
1.83693e-05
7.8769e-08
1.83719e-05
8.1471e-08
1.83741e-05
8.29888e-08
1.83758e-05
8.46732e-08
1.83765e-05
8.03315e-08
1.83779e-05
7.17839e-08
1.8381e-05
6.5453e-08
1.83855e-05
6.32919e-08
1.83902e-05
6.30949e-08
1.83936e-05
6.31402e-08
5.96727e-08
1.8395e-05
1.9243e-05
-1.44381e-08
1.92437e-05
5.63684e-10
1.92475e-05
2.81734e-08
1.92437e-05
2.42241e-08
1.92413e-05
2.53059e-08
1.92444e-05
4.81568e-08
1.92455e-05
6.33244e-08
1.92441e-05
6.71184e-08
1.92445e-05
7.20968e-08
1.92475e-05
7.57681e-08