/*--------------------------------*- C++ -*----------------------------------*\
| =========                 |                                                 |
| \\      /  F ield         | OpenFOAM: The Open Source CFD Toolbox           |
|  \\    /   O peration     | Version:  2106                                  |
|   \\  /    A nd           | Website:  www.openfoam.com                      |
|    \\/     M anipulation  |                                                 |
\*---------------------------------------------------------------------------*/
FoamFile
{
    version     2.0;
    format      ascii;
    arch        "LSB;label=32;scalar=64";
    class       volVectorField;
    location    "0.355";
    object      U;
}
// * * * * * * * * * * * * * * * * * * * * * * * * * * * * * * * * * * * * * //

dimensions      [0 1 -1 0 0 0 0];

internalField   nonuniform List<vector> 
9600
(
(0.801396 -0.00267598 0)
(1.23665 0.00982295 0)
(0.834465 -0.00677353 0)
(1.11201 0.00569074 0)
(0.88658 -0.0098316 0)
(1.16399 0.00908719 0)
(0.858502 -0.00261086 0)
(1.12914 0.00238505 0)
(0.860541 -0.00521314 0)
(1.13934 0.00184192 0)
(0.887143 5.85716e-05 0)
(1.13612 0.00180635 0)
(0.909745 -0.00312095 0)
(1.12661 -0.000708802 0)
(0.904915 0.00125927 0)
(1.1225 -0.0025401 0)
(0.880474 0.00854529 0)
(1.12454 0.00184653 0)
(0.852325 0.00584631 0)
(1.12418 0.00502968 0)
(0.812321 -0.00309141 0)
(1.22525 0.00969238 0)
(0.857967 -0.0059398 0)
(1.10553 0.00549265 0)
(0.904578 -0.0105038 0)
(1.15436 0.00933657 0)
(0.887694 -0.00237585 0)
(1.1156 0.00258137 0)
(0.891541 -0.00555122 0)
(1.11994 0.00168293 0)
(0.921221 -0.000172335 0)
(1.10977 0.0016243 0)
(0.949085 -0.0031417 0)
(1.09221 -0.000362195 0)
(0.953839 0.00120627 0)
(1.07336 -0.00173946 0)
(0.946466 0.00850495 0)
(1.0497 0.00262909 0)
(0.953264 0.0070829 0)
(1.00762 0.00397419 0)
(0.833978 -0.00344781 0)
(1.20027 0.00959821 0)
(0.892431 -0.00517462 0)
(1.09067 0.00516672 0)
(0.929229 -0.0110685 0)
(1.13327 0.00967072 0)
(0.929069 -0.00204078 0)
(1.08972 0.00268259 0)
(0.933442 -0.00574491 0)
(1.08578 0.001399 0)
(0.965751 -0.000101202 0)
(1.07297 0.00132074 0)
(0.990912 -0.00286532 0)
(1.05272 -0.000465638 0)
(0.996789 0.00160341 0)
(1.03354 -0.00162333 0)
(0.990891 0.00889278 0)
(1.01646 0.00254511 0)
(0.992039 0.00749176 0)
(0.993109 0.00456911 0)
(0.863817 -0.00373063 0)
(1.16376 0.00934843 0)
(0.929572 -0.00450764 0)
(1.06939 0.00494783 0)
(0.953072 -0.011462 0)
(1.10367 0.00972555 0)
(0.966544 -0.00162624 0)
(1.05935 0.00271328 0)
(0.967047 -0.00571949 0)
(1.05003 0.0010215 0)
(0.996268 2.45106e-05 0)
(1.04293 0.00101355 0)
(1.01147 -0.00255034 0)
(1.0275 -0.000557459 0)
(1.0125 0.00197774 0)
(1.01573 -0.0014985 0)
(1.00427 0.00927049 0)
(1.00911 0.00258662 0)
(0.999809 0.00796798 0)
(0.996129 0.00543363 0)
(0.897199 -0.00395022 0)
(1.12127 0.00896506 0)
(0.962207 -0.00389971 0)
(1.04654 0.00484161 0)
(0.97176 -0.0117482 0)
(1.07166 0.0095345 0)
(0.99128 -0.00116178 0)
(1.03356 0.00275467 0)
(0.985473 -0.00558782 0)
(1.02284 0.000626152 0)
(1.00741 7.39655e-05 0)
(1.02395 0.000820524 0)
(1.01415 -0.00229237 0)
(1.01398 -0.000582705 0)
(1.01214 0.00222247 0)
(1.00705 -0.00131053 0)
(1.00429 0.00937084 0)
(1.00498 0.0027745 0)
(0.999425 0.00838785 0)
(0.995316 0.00614479 0)
(0.928901 -0.00408968 0)
(1.08006 0.00854837 0)
(0.985765 -0.00339317 0)
(1.02705 0.00480725 0)
(0.984149 -0.0119288 0)
(1.04311 0.00926364 0)
(1.00289 -0.0007371 0)
(1.01655 0.00282989 0)
(0.992606 -0.00541723 0)
(1.00635 0.000299504 0)
(1.00665 4.05102e-05 0)
(1.01264 0.000708143 0)
(1.00979 -0.00208004 0)
(1.00589 -0.000592473 0)
(1.00696 0.0024275 0)
(1.00097 -0.00115348 0)
(1.00005 0.00932983 0)
(1.0006 0.0030567 0)
(0.996386 0.0085257 0)
(0.992883 0.006853 0)
(0.954901 -0.00414778 0)
(1.04628 0.00815859 0)
(0.99944 -0.00302278 0)
(1.01365 0.00482755 0)
(0.99142 -0.0119934 0)
(1.02139 0.0089968 0)
(1.00582 -0.000420421 0)
(1.00752 0.00292127 0)
(0.994872 -0.00522002 0)
(0.998107 6.76023e-05 0)
(1.00231 -2.96585e-05 0)
(1.00576 0.000608581 0)
(1.00485 -0.00189628 0)
(1.0007 -0.000599375 0)
(1.00183 0.00261133 0)
(0.996738 -0.00101044 0)
(0.995352 0.009267 0)
(0.996897 0.0033495 0)
(0.99323 0.00849674 0)
(0.990706 0.00758272 0)
(0.973463 -0.00414308 0)
(1.02278 0.00782962 0)
(1.00533 -0.00278279 0)
(1.00637 0.00487429 0)
(0.995452 -0.0119526 0)
(1.00713 0.0087551 0)
(1.00497 -0.000220071 0)
(1.0037 0.00299056 0)
(0.996159 -0.00500428 0)
(0.995006 -8.70812e-05 0)
(0.998773 -9.46351e-05 0)
(1.00173 0.000494869 0)
(1.0013 -0.00172966 0)
(0.997575 -0.000605611 0)
(0.998236 0.00277228 0)
(0.994302 -0.000847263 0)
(0.992082 0.0091691 0)
(0.994593 0.00364802 0)
(0.991419 0.00838937 0)
(0.989653 0.00829702 0)
(0.985047 -0.00409951 0)
(1.00896 0.00757252 0)
(1.0066 -0.00264445 0)
(1.00347 0.00491345 0)
(0.997685 -0.0118259 0)
(0.999134 0.00854019 0)
(1.00341 -0.000110526 0)
(1.00256 0.0030081 0)
(0.997553 -0.00477929 0)
(0.994623 -0.00019025 0)
(0.997082 -0.000126018 0)
(0.99967 0.000373222 0)
(0.999185 -0.00156967 0)
(0.995848 -0.000611901 0)
(0.99623 0.0029112 0)
(0.993257 -0.000664399 0)
(0.990655 0.00901867 0)
(0.993768 0.00397497 0)
(0.991161 0.00820756 0)
(0.989842 0.00894978 0)
(0.991387 -0.00403687 0)
(1.00212 0.00737583 0)
(1.00593 -0.00257338 0)
(1.00289 0.00492645 0)
(0.998915 -0.011634 0)
(0.995457 0.00834122 0)
(1.00234 -5.69186e-05 0)
(1.00253 0.00296991 0)
(0.998883 -0.00454892 0)
(0.995336 -0.000263235 0)
(0.996747 -0.000118227 0)
(0.998821 0.000255998 0)
(0.998064 -0.00140615 0)
(0.994951 -0.000614689 0)
(0.995308 0.00301964 0)
(0.993037 -0.000464693 0)
(0.990553 0.00880846 0)
(0.993948 0.00433109 0)
(0.991901 0.00796505 0)
(0.990808 0.00951935 0)
(0.994449 -0.00396746 0)
(0.999331 0.00721791 0)
(1.00489 -0.0025391 0)
(1.00313 0.00491084 0)
(0.999558 -0.0113973 0)
(0.994228 0.00814327 0)
(1.00184 -2.70195e-05 0)
(1.00278 0.00288804 0)
(0.999854 -0.00431322 0)
(0.996224 -0.000324485 0)
(0.997016 -7.58269e-05 0)
(0.998592 0.000151406 0)
(0.997523 -0.0012335 0)
(0.99452 -0.000613895 0)
(0.994955 0.00309455 0)
(0.993175 -0.000252534 0)
(0.991041 0.00853908 0)
(0.994511 0.00470382 0)
(0.992958 0.00769407 0)
(0.991966 0.00999479 0)
(0.995777 -0.00389627 0)
(0.998446 0.00707917 0)
(1.00409 -0.00252018 0)
(1.00343 0.00487154 0)
(0.999876 -0.0111313 0)
(0.994102 0.00793654 0)
(1.00167 1.43429e-06 0)
(1.00298 0.00277559 0)
(1.0004 -0.0040699 0)
(0.996907 -0.000387002 0)
(0.997385 -7.46499e-06 0)
(0.998602 5.77092e-05 0)
(0.99729 -0.00105094 0)
(0.994354 -0.000606127 0)
(0.994846 0.00313715 0)
(0.993405 -2.14874e-05 0)
(0.991616 0.00821382 0)
(0.995036 0.00508966 0)
(0.993898 0.00742417 0)
(0.99295 0.0103615 0)
(0.99632 -0.00382452 0)
(0.998279 0.00694648 0)
(1.00362 -0.0025042 0)
(1.00356 0.00481434 0)
(1.00004 -0.0108454 0)
(0.994332 0.00771665 0)
(1.00161 4.02151e-05 0)
(1.00305 0.00264131 0)
(1.00061 -0.00381653 0)
(0.997327 -0.000456849 0)
(0.997654 7.83692e-05 0)
(0.998661 -2.74499e-05 0)
(0.997204 -0.000864262 0)
(0.994343 -0.000583921 0)
(0.994826 0.0031436 0)
(0.993634 0.000234388 0)
(0.992084 0.0078514 0)
(0.995378 0.00547294 0)
(0.994591 0.00718578 0)
(0.993663 0.0106105 0)
(0.996556 -0.003752 0)
(0.998316 0.00681275 0)
(1.00337 -0.00248489 0)
(1.00353 0.00474331 0)
(1.00015 -0.0105437 0)
(0.99461 0.00748199 0)
(1.00156 9.41714e-05 0)
(1.00302 0.00249023 0)
(1.00064 -0.00355206 0)
(0.997554 -0.000534897 0)
(0.997799 0.000175428 0)
(0.998699 -0.000104945 0)
(0.997178 -0.000682944 0)
(0.994419 -0.000541973 0)
(0.994846 0.00311433 0)
(0.993848 0.000511889 0)
(0.992442 0.0074732 0)
(0.995561 0.00583278 0)
(0.995077 0.0070073 0)
(0.994163 0.0107341 0)
(0.996683 -0.00367824 0)
(0.998386 0.00667477 0)
(1.00324 -0.00245938 0)
(1.00341 0.00466071 0)
(1.00023 -0.010228 0)
(0.994856 0.00723221 0)
(1.0015 0.000163957 0)
(1.00295 0.00232502 0)
(1.00058 -0.00327605 0)
(0.997674 -0.000621312 0)
(0.997857 0.000278239 0)
(0.998705 -0.000176582 0)
(0.997171 -0.000513242 0)
(0.994541 -0.000472947 0)
(0.994894 0.00305488 0)
(0.994058 0.000809878 0)
(0.992745 0.00709392 0)
(0.99566 0.00615173 0)
(0.995444 0.00690377 0)
(0.994542 0.0107381 0)
(0.996776 -0.00360287 0)
(0.998444 0.00653127 0)
(1.00317 -0.00242666 0)
(1.00325 0.0045678 0)
(1.00029 -0.00989896 0)
(0.995067 0.00696725 0)
(1.00142 0.000250351 0)
(1.00287 0.00214686 0)
(1.0005 -0.00298941 0)
(0.997748 -0.0007117 0)
(0.997866 0.000382927 0)
(0.998688 -0.000237382 0)
(0.997168 -0.000361652 0)
(0.99468 -0.0003758 0)
(0.994965 0.00297125 0)
(0.994269 0.00111778 0)
(0.993034 0.00673845 0)
(0.995731 0.00642095 0)
(0.995751 0.00686602 0)
(0.994869 0.0106422 0)
(0.996856 -0.00352562 0)
(0.998487 0.00638194 0)
(1.00312 -0.00238684 0)
(1.00309 0.00446556 0)
(1.00035 -0.00955689 0)
(0.995258 0.00668757 0)
(1.00134 0.00035097 0)
(1.0028 0.00195715 0)
(1.00042 -0.00269347 0)
(0.997809 -0.00080451 0)
(0.997857 0.000485583 0)
(0.998658 -0.000284279 0)
(0.997167 -0.000232425 0)
(0.994821 -0.000251334 0)
(0.995053 0.0028711 0)
(0.99448 0.00142498 0)
(0.993323 0.00642425 0)
(0.9958 0.0066284 0)
(0.996027 0.00687865 0)
(0.995178 0.0104827 0)
(0.996935 -0.00344644 0)
(0.998516 0.00622691 0)
(1.00309 -0.00234038 0)
(1.00293 0.00435465 0)
(1.00039 -0.00920219 0)
(0.995438 0.00639395 0)
(1.00125 0.000465647 0)
(1.00273 0.00175833 0)
(1.00035 -0.0023907 0)
(0.997871 -0.000896851 0)
(0.997847 0.00058192 0)
(0.998624 -0.000313987 0)
(0.99717 -0.000126686 0)
(0.994958 -0.000101572 0)
(0.995151 0.00276438 0)
(0.994684 0.00171758 0)
(0.99361 0.00615836 0)
(0.995874 0.00677318 0)
(0.996281 0.00692674 0)
(0.995482 0.0102924 0)
(0.997015 -0.00336535 0)
(0.998538 0.00606635 0)
(1.00307 -0.00228793 0)
(1.00278 0.00423594 0)
(1.00043 -0.00883587 0)
(0.995615 0.00608743 0)
(1.00116 0.00059356 0)
(1.00266 0.00155189 0)
(1.00029 -0.00208439 0)
(0.997939 -0.000981755 0)
(0.997845 0.000668334 0)
(0.998592 -0.000320404 0)
(0.99718 -4.34407e-05 0)
(0.995088 6.65896e-05 0)
(0.995252 0.00265687 0)
(0.99488 0.00198646 0)
(0.993892 0.00594659 0)
(0.995955 0.00686683 0)
(0.996516 0.00698791 0)
(0.995781 0.0100911 0)
(0.997099 -0.0032825 0)
(0.998554 0.00590097 0)
(1.00304 -0.00223063 0)
(1.00263 0.00411052 0)
(1.00047 -0.00845916 0)
(0.995791 0.00577026 0)
(1.00106 0.000729875 0)
(1.00259 0.00133935 0)
(1.00022 -0.00177817 0)
(0.998012 -0.00105713 0)
(0.997853 0.000741325 0)
(0.998562 -0.000304542 0)
(0.997199 1.55882e-05 0)
(0.995212 0.000246216 0)
(0.995357 0.00255869 0)
(0.995069 0.00222641 0)
(0.994168 0.00578327 0)
(0.996041 0.00692229 0)
(0.996735 0.0070422 0)
(0.996073 0.0098908 0)
(0.997187 -0.00319817 0)
(0.99857 0.0057314 0)
(1.00302 -0.00216902 0)
(1.00249 0.00397891 0)
(1.00051 -0.00807319 0)
(0.995969 0.00544453 0)
(1.00095 0.000874188 0)
(1.00252 0.00112313 0)
(1.00016 -0.00147559 0)
(0.998087 -0.0011183 0)
(0.997872 0.000796488 0)
(0.998536 -0.000266287 0)
(0.997228 5.37017e-05 0)
(0.995332 0.000430947 0)
(0.995463 0.00247872 0)
(0.995258 0.00243506 0)
(0.994439 0.00565555 0)
(0.996136 0.00695122 0)
(0.996942 0.00708052 0)
(0.996361 0.00969505 0)
(0.997279 -0.00311242 0)
(0.998586 0.00555812 0)
(1.00299 -0.00210457 0)
(1.00234 0.0038432 0)
(1.00055 -0.00768059 0)
(0.99615 0.00511236 0)
(1.00084 0.00102559 0)
(1.00245 0.000906303 0)
(1.0001 -0.00118125 0)
(0.998161 -0.00116171 0)
(0.9979 0.000832909 0)
(0.99851 -0.000205225 0)
(0.997266 8.07744e-05 0)
(0.995451 0.000613788 0)
(0.995573 0.00242222 0)
(0.995448 0.00261566 0)
(0.99471 0.00555411 0)
(0.99624 0.00696163 0)
(0.997141 0.00710009 0)
(0.996647 0.00949298 0)
(0.997373 -0.00302595 0)
(0.998603 0.00538308 0)
(1.00296 -0.00203931 0)
(1.0022 0.0037047 0)
(1.00058 -0.00728358 0)
(0.996333 0.00477684 0)
(1.00073 0.001181 0)
(1.00238 0.00069262 0)
(1.00005 -0.000897546 0)
(0.998233 -0.0011852 0)
(0.997935 0.000850992 0)
(0.998484 -0.000122487 0)
(0.997311 0.000100469 0)
(0.995571 0.000791491 0)
(0.995685 0.00239045 0)
(0.995642 0.00277023 0)
(0.994983 0.00547562 0)
(0.996355 0.0069583 0)
(0.997334 0.00710135 0)
(0.996932 0.00926896 0)
(0.997469 -0.002939 0)
(0.998621 0.00520681 0)
(1.00293 -0.00197344 0)
(1.00206 0.00356438 0)
(1.00061 -0.00688408 0)
(0.996519 0.00443805 0)
(1.00061 0.00133911 0)
(1.00232 0.000484595 0)
(0.999991 -0.000629248 0)
(0.9983 -0.00118448 0)
(0.997978 0.000848724 0)
(0.998457 -1.92231e-05 0)
(0.997362 0.000115558 0)
(0.995694 0.000960715 0)
(0.995801 0.00238678 0)
(0.995841 0.00289898 0)
(0.995259 0.00541565 0)
(0.99648 0.00694415 0)
(0.997519 0.00709156 0)
(0.997219 0.0090205 0)
(0.997567 -0.00285163 0)
(0.998641 0.00502992 0)
(1.00289 -0.00190897 0)
(1.00193 0.00342528 0)
(1.00063 -0.00648315 0)
(0.996709 0.00409729 0)
(1.00049 0.00149906 0)
(1.00225 0.000283168 0)
(0.999939 -0.000380413 0)
(0.998361 -0.00116039 0)
(0.998028 0.000826339 0)
(0.998431 0.000101821 0)
(0.997418 0.000130708 0)
(0.995821 0.00111614 0)
(0.995918 0.00241566 0)
(0.996044 0.00300295 0)
(0.99554 0.005365 0)
(0.996615 0.00692281 0)
(0.997694 0.00707841 0)
(0.997507 0.00875495 0)
(0.997666 -0.00276484 0)
(0.998661 0.00485453 0)
(1.00286 -0.00184756 0)
(1.00179 0.00328829 0)
(1.00066 -0.00608185 0)
(0.996903 0.00375857 0)
(1.00037 0.00165775 0)
(1.00219 9.19667e-05 0)
(0.999891 -0.000152049 0)
(0.998415 -0.0011102 0)
(0.998085 0.000782344 0)
(0.998405 0.000240982 0)
(0.997478 0.000149848 0)
(0.995955 0.00125345 0)
(0.996036 0.0024799 0)
(0.996249 0.0030886 0)
(0.995827 0.00530883 0)
(0.996759 0.00689735 0)
(0.997857 0.00706809 0)
(0.997792 0.00848327 0)
(0.997766 -0.00267838 0)
(0.998681 0.00468086 0)
(1.00283 -0.00179024 0)
(1.00166 0.00315415 0)
(1.00067 -0.00568186 0)
(0.997101 0.00342071 0)
(1.00025 0.00181744 0)
(1.00212 -8.46065e-05 0)
(0.999849 5.10293e-05 0)
(0.99846 -0.00102722 0)
(0.998151 0.000716142 0)
(0.998382 0.00039429 0)
(0.99754 0.000179271 0)
(0.996099 0.00136939 0)
(0.996157 0.00257285 0)
(0.996452 0.00316748 0)
(0.996119 0.00523671 0)
(0.996915 0.00686301 0)
(0.998006 0.00706972 0)
(0.998068 0.00821965 0)
(0.997868 -0.00259284 0)
(0.998702 0.00451127 0)
(1.0028 -0.00173976 0)
(1.00154 0.0030228 0)
(1.00068 -0.00528246 0)
(0.997303 0.00308444 0)
(1.00013 0.00197449 0)
(1.00206 -0.000249663 0)
(0.999814 0.000228644 0)
(0.998495 -0.000912474 0)
(0.998225 0.000628252 0)
(0.998364 0.000558201 0)
(0.997603 0.000225348 0)
(0.996253 0.00145711 0)
(0.996282 0.00268529 0)
(0.996651 0.00325365 0)
(0.996415 0.0051501 0)
(0.997085 0.00680221 0)
(0.99814 0.00708099 0)
(0.998326 0.00798172 0)
(0.997971 -0.00250943 0)
(0.998724 0.00434776 0)
(1.00276 -0.00169562 0)
(1.00141 0.0028934 0)
(1.00068 -0.00488317 0)
(0.99751 0.00274985 0)
(1 0.00212609 0)
(1.00199 -0.000399993 0)
(0.999789 0.000375448 0)
(0.998517 -0.000761997 0)
(0.998306 0.000518202 0)
(0.998353 0.000725086 0)
(0.997664 0.000297211 0)
(0.99642 0.00151173 0)
(0.996414 0.00280774 0)
(0.996843 0.00335369 0)
(0.996711 0.00505603 0)
(0.997273 0.00670496 0)
(0.998266 0.00708475 0)
(0.998558 0.00779056 0)
(0.998075 -0.00242712 0)
(0.998745 0.00418831 0)
(1.00272 -0.00165712 0)
(1.00129 0.00276382 0)
(1.00068 -0.00448424 0)
(0.99772 0.0024157 0)
(0.999876 0.0022773 0)
(1.00192 -0.00052918 0)
(0.999775 0.000482884 0)
(0.998527 -0.000572062 0)
(0.998391 0.000395247 0)
(0.998354 0.000882458 0)
(0.997721 0.000408761 0)
(0.996598 0.0015371 0)
(0.996556 0.00292293 0)
(0.997025 0.00347038 0)
(0.997002 0.00496227 0)
(0.997477 0.00657881 0)
(0.998392 0.00706166 0)
(0.998765 0.00764018 0)
(0.998179 -0.00234644 0)
(0.998766 0.00403372 0)
(1.00268 -0.00162489 0)
(1.00118 0.00263305 0)
(1.00066 -0.00408218 0)
(0.997933 0.002081 0)
(0.999753 0.00242708 0)
(1.00185 -0.000632641 0)
(0.999776 0.000549973 0)
(0.998525 -0.000350202 0)
(0.998478 0.000273738 0)
(0.99837 0.00101709 0)
(0.997772 0.000571166 0)
(0.996784 0.00154724 0)
(0.996715 0.003014 0)
(0.9972 0.003609 0)
(0.997284 0.00488014 0)
(0.997696 0.00642792 0)
(0.998522 0.00700734 0)
(0.998952 0.00749761 0)
(0.998283 -0.00226874 0)
(0.998786 0.00388724 0)
(1.00264 -0.0015965 0)
(1.00107 0.00249891 0)
(1.00064 -0.00367523 0)
(0.998149 0.00174526 0)
(0.999634 0.00256912 0)
(1.00176 -0.000701673 0)
(0.999793 0.000572238 0)
(0.998512 -9.88647e-05 0)
(0.998563 0.000167499 0)
(0.998407 0.0011126 0)
(0.997817 0.00078646 0)
(0.996971 0.00156219 0)
(0.996893 0.00306545 0)
(0.997369 0.00375801 0)
(0.99755 0.00482272 0)
(0.997927 0.0062516 0)
(0.998659 0.00692841 0)
(0.999124 0.00735091 0)
(0.998387 -0.00219291 0)
(0.998804 0.00374702 0)
(1.0026 -0.00156926 0)
(1.00098 0.00235681 0)
(1.0006 -0.00326122 0)
(0.998365 0.0014085 0)
(0.99952 0.00269486 0)
(1.00167 -0.000733301 0)
(0.999826 0.000544094 0)
(0.998492 0.000179484 0)
(0.998641 9.14218e-05 0)
(0.998467 0.00115615 0)
(0.997861 0.00103478 0)
(0.997152 0.00160076 0)
(0.997091 0.00307042 0)
(0.997539 0.00389522 0)
(0.997795 0.00480088 0)
(0.998163 0.00605829 0)
(0.998805 0.0068196 0)
(0.999284 0.00721119 0)
(0.998491 -0.00211891 0)
(0.998821 0.00361112 0)
(1.00255 -0.00154029 0)
(1.00089 0.0022028 0)
(1.00055 -0.00283578 0)
(0.998579 0.00107551 0)
(0.999413 0.00279914 0)
(1.00157 -0.000716011 0)
(0.999878 0.000464243 0)
(0.998469 0.000466416 0)
(0.998705 6.11917e-05 0)
(0.998551 0.00114474 0)
(0.997909 0.00129192 0)
(0.99732 0.00168061 0)
(0.997306 0.00303527 0)
(0.997717 0.00399848 0)
(0.998018 0.00481745 0)
(0.998397 0.00586691 0)
(0.998965 0.00666493 0)
(0.99943 0.00708651 0)
(0.998594 -0.00204739 0)
(0.998835 0.00348024 0)
(1.0025 -0.00150709 0)
(1.00081 0.00203165 0)
(1.00049 -0.00240306 0)
(0.998791 0.000757977 0)
(0.999317 0.0028764 0)
(1.00145 -0.000641331 0)
(0.999947 0.000344587 0)
(0.998449 0.000741407 0)
(0.998751 9.23309e-05 0)
(0.998658 0.00108523 0)
(0.997968 0.00153641 0)
(0.99747 0.00181087 0)
(0.997529 0.00297937 0)
(0.997911 0.00404918 0)
(0.998222 0.00486364 0)
(0.998618 0.00570881 0)
(0.999141 0.00645837 0)
(0.999572 0.00695558 0)
(0.998696 -0.00197731 0)
(0.998847 0.00335072 0)
(1.00245 -0.00146541 0)
(1.00074 0.00183954 0)
(1.00042 -0.00196732 0)
(0.998997 0.000462573 0)
(0.999233 0.00291749 0)
(1.00131 -0.000510544 0)
(1.00003 0.000201475 0)
(0.998438 0.000987053 0)
(0.998774 0.000192989 0)
(0.998782 0.00099857 0)
(0.998048 0.00174805 0)
(0.997599 0.00199225 0)
(0.997751 0.00293047 0)
(0.998127 0.0040407 0)
(0.998416 0.00491034 0)
(0.998813 0.00560724 0)
(0.999324 0.00622277 0)
(0.999721 0.00677722 0)
(0.998797 -0.00190745 0)
(0.998857 0.00321918 0)
(1.00238 -0.00141219 0)
(1.00069 0.00162732 0)
(1.00034 -0.00153547 0)
(0.999194 0.000196567 0)
(0.999166 0.00291072 0)
(1.00116 -0.000326873 0)
(1.00012 5.44507e-05 0)
(0.998444 0.00118716 0)
(0.998773 0.000359999 0)
(0.998917 0.000909057 0)
(0.998156 0.00190821 0)
(0.997713 0.00221218 0)
(0.99796 0.00290993 0)
(0.998361 0.00397834 0)
(0.998614 0.00492195 0)
(0.99898 0.00555941 0)
(0.999495 0.00600699 0)
(0.999886 0.00653226 0)
(0.998896 -0.0018381 0)
(0.998864 0.00308478 0)
(1.00231 -0.00134106 0)
(1.00065 0.00139389 0)
(1.00025 -0.00111606 0)
(0.99938 -2.41356e-05 0)
(0.999118 0.00284949 0)
(1.00098 -0.000101993 0)
(1.00022 -8.92165e-05 0)
(0.998472 0.0013301 0)
(0.998751 0.000582119 0)
(0.999052 0.000835746 0)
(0.998296 0.00200492 0)
(0.997816 0.00244748 0)
(0.998144 0.00292963 0)
(0.998605 0.00387987 0)
(0.998828 0.00487879 0)
(0.999128 0.00553532 0)
(0.999636 0.00585623 0)
(1.00006 0.00625062 0)
(0.998992 -0.00176867 0)
(0.99887 0.00294605 0)
(1.00222 -0.00125026 0)
(1.00062 0.00114973 0)
(1.00016 -0.000720831 0)
(0.99955 -0.00020131 0)
(0.999092 0.00274049 0)
(1.0008 0.000152911 0)
(1.00031 -0.000218567 0)
(0.998528 0.00140968 0)
(0.99871 0.000844928 0)
(0.999178 0.000799398 0)
(0.998468 0.0020355 0)
(0.99792 0.00267496 0)
(0.998296 0.00299774 0)
(0.998845 0.00377186 0)
(0.999062 0.00478358 0)
(0.999276 0.00549103 0)
(0.999741 0.00577068 0)
(1.00021 0.00600296 0)
(0.999086 -0.00169753 0)
(0.998876 0.00279998 0)
(1.00213 -0.00114028 0)
(1.00061 0.000898019 0)
(1.00006 -0.000358201 0)
(0.999702 -0.000326091 0)
(0.999091 0.00259052 0)
(1.0006 0.000430023 0)
(1.00039 -0.000304726 0)
(0.998616 0.00142701 0)
(0.99866 0.00112441 0)
(0.999283 0.00081317 0)
(0.998669 0.00200687 0)
(0.998036 0.00287069 0)
(0.998417 0.00311525 0)
(0.99907 0.00367635 0)
(0.999311 0.00464611 0)
(0.999438 0.0054047 0)
(0.999826 0.00570029 0)
(1.00031 0.00583342 0)
(0.999177 -0.00162458 0)
(0.998882 0.0026431 0)
(1.00202 -0.00100577 0)
(1.00061 0.000644803 0)
(0.999966 -3.469e-05 0)
(0.999831 -0.000391843 0)
(0.999113 0.00240536 0)
(1.0004 0.000711116 0)
(1.00045 -0.000337547 0)
(0.998734 0.00139323 0)
(0.99861 0.00140374 0)
(0.99936 0.000886244 0)
(0.998893 0.00193379 0)
(0.998176 0.00301271 0)
(0.998509 0.00327016 0)
(0.999265 0.00361497 0)
(0.999568 0.00447735 0)
(0.999618 0.0052863 0)
(0.999907 0.00560396 0)
(1.00038 0.00570432 0)
(0.999264 -0.00154969 0)
(0.998891 0.0024776 0)
(1.0019 -0.000855725 0)
(1.00061 0.000403837 0)
(0.999875 0.000235817 0)
(0.999936 -0.000407381 0)
(0.999158 0.00219599 0)
(1.00019 0.000980365 0)
(1.00049 -0.000316827 0)
(0.998882 0.00131433 0)
(0.998568 0.00166333 0)
(0.999403 0.00102464 0)
(0.999128 0.00184092 0)
(0.998351 0.0030856 0)
(0.998585 0.00343848 0)
(0.99942 0.00360202 0)
(0.999823 0.00429156 0)
(0.999815 0.00514292 0)
(0.999991 0.00549987 0)
(1.00043 0.00556338 0)
(0.999348 -0.00147268 0)
(0.998902 0.00230439 0)
(1.00178 -0.000693574 0)
(1.00063 0.000177295 0)
(0.999791 0.000448379 0)
(1.00002 -0.000374385 0)
(0.999223 0.00197732 0)
(0.999998 0.00122902 0)
(1.0005 -0.000237387 0)
(0.999054 0.0011991 0)
(0.998547 0.00188206 0)
(0.99941 0.00122105 0)
(0.999359 0.00175928 0)
(0.998564 0.00308265 0)
(0.998657 0.00359297 0)
(0.999527 0.0036438 0)
(1.00006 0.00410959 0)
(1.00004 0.0049489 0)
(1.00008 0.00540475 0)
(1.00046 0.00542254 0)
(0.999426 -0.00139315 0)
(0.998918 0.00212277 0)
(1.00164 -0.000526649 0)
(1.00064 -2.12029e-05 0)
(0.999718 0.000606203 0)
(1.00008 -0.000302928 0)
(0.999306 0.00175757 0)
(0.999817 0.00144905 0)
(1.00048 -0.00010137 0)
(0.999243 0.00106664 0)
(0.998558 0.00204952 0)
(0.999387 0.00146102 0)
(0.99957 0.00171128 0)
(0.998813 0.00300972 0)
(0.998745 0.00370163 0)
(0.99959 0.00373571 0)
(1.00026 0.00397788 0)
(1.00028 0.00469835 0)
(1.00018 0.00527769 0)
(1.00046 0.00531759 0)
(0.9995 -0.00131123 0)
(0.998939 0.0019363 0)
(1.00149 -0.000361296 0)
(1.00066 -0.000189371 0)
(0.999658 0.000716197 0)
(1.00011 -0.000205589 0)
(0.999404 0.00153809 0)
(0.999656 0.00163677 0)
(1.00042 8.3208e-05 0)
(0.999441 0.000930861 0)
(0.998609 0.0021536 0)
(0.99934 0.00172938 0)
(0.999746 0.00171163 0)
(0.999088 0.00288916 0)
(0.998867 0.00374433 0)
(0.999626 0.00383763 0)
(1.00041 0.00392027 0)
(1.00053 0.00444271 0)
(1.00033 0.00507396 0)
(1.00046 0.00523505 0)
(0.999569 -0.00122739 0)
(0.998965 0.00174626 0)
(1.00134 -0.000199888 0)
(1.00068 -0.000322316 0)
(0.999612 0.000783017 0)
(1.00012 -8.96462e-05 0)
(0.999513 0.00132343 0)
(0.999522 0.00178382 0)
(1.00034 0.000319944 0)
(0.999637 0.000813468 0)
(0.998707 0.0021771 0)
(0.999284 0.00199943 0)
(0.999876 0.00177351 0)
(0.999374 0.00274759 0)
(0.999028 0.00372403 0)
(0.999655 0.00391139 0)
(1.00049 0.00391362 0)
(1.00074 0.00424128 0)
(1.00052 0.00480834 0)
(1.00048 0.0051089 0)
(0.999632 -0.00114169 0)
(0.998997 0.00155539 0)
(1.00119 -5.12329e-05 0)
(1.00069 -0.000414841 0)
(0.999581 0.000808844 0)
(1.00012 4.03229e-05 0)
(0.99963 0.0011241 0)
(0.999421 0.00187757 0)
(1.00023 0.000595933 0)
(0.999813 0.000745701 0)
(0.998853 0.002121 0)
(0.999238 0.00223129 0)
(0.999956 0.00189938 0)
(0.999654 0.00261644 0)
(0.999228 0.00364153 0)
(0.999694 0.00395054 0)
(1.00054 0.00391793 0)
(1.0009 0.00410251 0)
(1.00072 0.00454786 0)
(1.00055 0.00490471 0)
(0.99969 -0.00105525 0)
(0.999036 0.0013676 0)
(1.00103 8.62503e-05 0)
(1.0007 -0.000476654 0)
(0.999566 0.000809208 0)
(1.0001 0.000176659 0)
(0.999749 0.00094458 0)
(0.99936 0.00192053 0)
(1.00009 0.000888783 0)
(0.999957 0.000735349 0)
(0.999035 0.00201821 0)
(0.99922 0.00240435 0)
(0.999993 0.0020663 0)
(0.999906 0.00252394 0)
(0.999462 0.00350626 0)
(0.999754 0.00395578 0)
(1.00056 0.00391833 0)
(1.00102 0.00398858 0)
(1.0009 0.00433194 0)
(1.00067 0.0046573 0)
(0.999741 -0.000968647 0)
(0.99908 0.0011849 0)
(1.00088 0.00020902 0)
(1.0007 -0.000504462 0)
(0.999566 0.00078562 0)
(1.00006 0.000322594 0)
(0.999865 0.000790075 0)
(0.999342 0.0019036 0)
(0.99995 0.00119015 0)
(1.00006 0.000790429 0)
(0.999244 0.00188831 0)
(0.99924 0.00250969 0)
(0.999999 0.0022481 0)
(1.00012 0.00248078 0)
(0.999718 0.00334539 0)
(0.999846 0.00391055 0)
(1.00056 0.00392834 0)
(1.00109 0.00388579 0)
(1.00105 0.00414464 0)
(1.0008 0.00442331 0)
(0.999788 -0.00088236 0)
(0.99913 0.00101012 0)
(1.00073 0.000312131 0)
(1.00069 -0.000501136 0)
(0.999581 0.000742599 0)
(1.00001 0.000464976 0)
(0.999969 0.000677507 0)
(0.999368 0.00182034 0)
(0.999814 0.00146264 0)
(1.00011 0.000931564 0)
(0.99946 0.00176267 0)
(0.999307 0.00252875 0)
(0.999989 0.00241378 0)
(1.00028 0.00248995 0)
(0.999977 0.00319257 0)
(0.999978 0.00380487 0)
(1.00055 0.00392917 0)
(1.00112 0.00381203 0)
(1.00117 0.00395553 0)
(1.00091 0.00421906 0)
(0.999828 -0.000797421 0)
(0.999185 0.000845354 0)
(1.00059 0.000395774 0)
(1.00067 -0.00047631 0)
(0.999609 0.000691013 0)
(0.99996 0.000598559 0)
(1.00006 0.000606109 0)
(0.999433 0.00169766 0)
(0.999704 0.00167603 0)
(1.00012 0.00112433 0)
(0.999658 0.00168453 0)
(0.999414 0.00248208 0)
(0.999987 0.00253269 0)
(1.0004 0.00253487 0)
(1.00022 0.00307263 0)
(1.00014 0.00366348 0)
(1.00056 0.00388996 0)
(1.00111 0.00377872 0)
(1.00127 0.00377539 0)
(1.00103 0.00401239 0)
(0.999863 -0.000714507 0)
(0.999244 0.00069297 0)
(1.00046 0.000459358 0)
(1.00065 -0.000427969 0)
(0.99965 0.000623176 0)
(0.999904 0.000724212 0)
(1.00012 0.000578855 0)
(0.999531 0.00154932 0)
(0.999627 0.0018287 0)
(1.00009 0.00133747 0)
(0.999828 0.00165334 0)
(0.999549 0.00241234 0)
(1 0.00259281 0)
(1.00048 0.00257338 0)
(1.00043 0.0029814 0)
(1.00033 0.00351725 0)
(1.0006 0.00380221 0)
(1.00107 0.00376217 0)
(1.00131 0.00365008 0)
(1.00114 0.0037891 0)
(0.999892 -0.000634376 0)
(0.999306 0.000555123 0)
(1.00033 0.000502825 0)
(1.00061 -0.000362461 0)
(0.999702 0.000551074 0)
(0.999852 0.000826617 0)
(1.00016 0.000601987 0)
(0.999649 0.00139453 0)
(0.999595 0.00189409 0)
(1.00005 0.00155757 0)
(0.99996 0.00167985 0)
(0.999697 0.00233238 0)
(1.00003 0.00261577 0)
(1.00055 0.00259374 0)
(1.00061 0.00289588 0)
(1.00051 0.00338195 0)
(1.00067 0.003682 0)
(1.00103 0.00371799 0)
(1.00129 0.00358771 0)
(1.00123 0.00358782 0)
(0.999917 -0.000557414 0)
(0.99937 0.000431349 0)
(1.00023 0.00053001 0)
(1.00056 -0.000285387 0)
(0.99976 0.000480322 0)
(0.99981 0.000903605 0)
(1.00017 0.000662198 0)
(0.99977 0.00126244 0)
(0.99961 0.00187733 0)
(1 0.00173569 0)
(1.00005 0.00176516 0)
(0.999844 0.00226011 0)
(1.00008 0.00259803 0)
(1.00059 0.002609 0)
(1.00077 0.00280462 0)
(1.00069 0.00324352 0)
(1.00076 0.00355851 0)
(1.00101 0.00363411 0)
(1.00123 0.00354924 0)
(1.00125 0.00345354 0)
(0.999936 -0.000484143 0)
(0.999435 0.000322153 0)
(1.00013 0.000540227 0)
(1.00051 -0.000197689 0)
(0.999824 0.000413138 0)
(0.999783 0.000950962 0)
(1.00016 0.000751133 0)
(0.999882 0.00116187 0)
(0.999661 0.00181096 0)
(0.999974 0.00185471 0)
(1.00011 0.0018589 0)
(0.999969 0.00223723 0)
(1.00015 0.00254525 0)
(1.00063 0.00260031 0)
(1.00089 0.00272345 0)
(1.00087 0.00308414 0)
(1.00087 0.00343049 0)
(1.00101 0.00353468 0)
(1.00116 0.00349156 0)
(1.00121 0.00338385 0)
(0.999952 -0.000415159 0)
(0.999499 0.000228067 0)
(1.00005 0.000536237 0)
(1.00045 -0.000105577 0)
(0.999887 0.000357337 0)
(0.999774 0.000965564 0)
(1.00013 0.000850069 0)
(0.999975 0.00110156 0)
(0.999742 0.00171681 0)
(0.99997 0.00191378 0)
(1.00015 0.00193896 0)
(1.00007 0.00224023 0)
(1.00021 0.00251247 0)
(1.00066 0.00255861 0)
(1.00099 0.0026483 0)
(1.00105 0.00292054 0)
(1.001 0.00327197 0)
(1.00103 0.00343831 0)
(1.00111 0.00340987 0)
(1.00114 0.00333525 0)
(0.999964 -0.000351321 0)
(0.999562 0.000150422 0)
(0.99999 0.00051819 0)
(1.00039 -1.16634e-05 0)
(0.999948 0.000315848 0)
(0.999786 0.000952361 0)
(1.0001 0.000943881 0)
(1.00004 0.00108613 0)
(0.999835 0.00161732 0)
(0.999994 0.0019038 0)
(1.00019 0.00199929 0)
(1.00016 0.00223585 0)
(1.00025 0.00249703 0)
(1.00067 0.00252205 0)
(1.00106 0.0025599 0)
(1.0012 0.00276819 0)
(1.00116 0.00308267 0)
(1.00108 0.00332581 0)
(1.00107 0.00333622 0)
(1.00108 0.00327113 0)
(0.999973 -0.00029342 0)
(0.999623 8.99088e-05 0)
(0.999943 0.000487638 0)
(1.00032 8.15872e-05 0)
(1 0.00029261 0)
(0.999816 0.000912967 0)
(1.00007 0.00101971 0)
(1.00009 0.00110916 0)
(0.999927 0.00153169 0)
(1.00004 0.00185417 0)
(1.00023 0.00201496 0)
(1.00024 0.00223457 0)
(1.0003 0.00247216 0)
(1.00066 0.00250692 0)
(1.0011 0.00247982 0)
(1.00132 0.00261812 0)
(1.00132 0.00288343 0)
(1.00117 0.00316598 0)
(1.00105 0.00326886 0)
(1.00101 0.00320186 0)
(0.999981 -0.000241892 0)
(0.999679 4.63258e-05 0)
(0.999912 0.000447405 0)
(1.00026 0.000167731 0)
(1.00004 0.000289339 0)
(0.999861 0.000859438 0)
(1.00006 0.00106668 0)
(1.00012 0.00115313 0)
(1.00001 0.00147088 0)
(1.00011 0.00178673 0)
(1.00029 0.00198051 0)
(1.00031 0.00221513 0)
(1.00034 0.00244523 0)
(1.00064 0.00249215 0)
(1.00109 0.00242786 0)
(1.00141 0.0024789 0)
(1.00148 0.00268542 0)
(1.00131 0.00296489 0)
(1.00106 0.00316882 0)
(1.00095 0.00314577 0)
(0.999986 -0.000197419 0)
(0.999731 1.89507e-05 0)
(0.999896 0.000401167 0)
(1.0002 0.00024154 0)
(1.00007 0.00030591 0)
(0.999915 0.000801012 0)
(1.00006 0.00108349 0)
(1.00013 0.00119765 0)
(1.00007 0.00144208 0)
(1.00017 0.00171226 0)
(1.00036 0.00191901 0)
(1.0004 0.00215505 0)
(1.00039 0.00241002 0)
(1.00061 0.00247555 0)
(1.00105 0.00239546 0)
(1.00145 0.0023696 0)
(1.00162 0.00250097 0)
(1.00149 0.00274032 0)
(1.00115 0.0030173 0)
(1.00092 0.00308289 0)
(0.99999 -0.000159986 0)
(0.999778 5.8411e-06 0)
(0.999893 0.000353334 0)
(1.00015 0.000298914 0)
(1.00009 0.00033937 0)
(0.999971 0.000747903 0)
(1.00007 0.00106895 0)
(1.00015 0.00123035 0)
(1.00012 0.00144087 0)
(1.00023 0.0016458 0)
(1.00042 0.00184726 0)
(1.0005 0.00206474 0)
(1.00045 0.00234031 0)
(1.00058 0.00245492 0)
(1.00098 0.00237744 0)
(1.00144 0.00228923 0)
(1.0017 0.0023462 0)
(1.00167 0.00251315 0)