/*--------------------------------*- C++ -*----------------------------------*\
| =========                 |                                                 |
| \\      /  F ield         | OpenFOAM: The Open Source CFD Toolbox           |
|  \\    /   O peration     | Version:  2106                                  |
|   \\  /    A nd           | Website:  www.openfoam.com                      |
|    \\/     M anipulation  |                                                 |
\*---------------------------------------------------------------------------*/
FoamFile
{
    version     2.0;
    format      ascii;
    arch        "LSB;label=32;scalar=64";
    class       surfaceScalarField;
    location    "0.56";
    object      phi;
}
// * * * * * * * * * * * * * * * * * * * * * * * * * * * * * * * * * * * * * //

dimensions      [0 3 -1 0 0 0 0];

oriented        oriented;

internalField   nonuniform List<scalar> 
19000
(
1.16848e-06
3.01564e-07
1.15342e-06
-4.63447e-07
1.1861e-06
3.97997e-07
1.13756e-06
-3.34967e-08
1.14002e-06
-6.2032e-07
1.18033e-06
1.12639e-07
1.16996e-06
-5.42673e-08
1.15512e-06
-1.70709e-07
1.16477e-06
2.50149e-07
1.13793e-06
-2.5356e-07
1.17948e-06
4.96613e-07
1.15015e-06
-2.10477e-07
1.17205e-06
-1.48212e-07
1.1674e-06
2.80891e-08
1.17089e-06
-6.6937e-09
1.1654e-06
5.16059e-08
1.17317e-06
7.10783e-08
1.16373e-06
6.93017e-08
1.16428e-06
8.51945e-08
9.11768e-08
1.13654e-06
1.22147e-06
3.04351e-07
1.20763e-06
-4.49608e-07
1.23683e-06
3.68802e-07
1.19307e-06
1.02678e-08
1.19648e-06
-6.23736e-07
1.23799e-06
7.11292e-08
1.22729e-06
-4.35622e-08
1.21282e-06
-1.56238e-07
1.21824e-06
2.44726e-07
1.1954e-06
-2.30718e-07
1.22834e-06
4.63665e-07
1.20984e-06
-1.9197e-07
1.2226e-06
-1.60979e-07
1.23132e-06
1.9375e-08
1.22208e-06
2.54191e-09
1.23275e-06
4.09367e-08
1.22108e-06
8.27494e-08
1.23503e-06
5.53477e-08
1.20802e-06
1.12213e-07
7.86986e-08
1.22049e-06
1.2772e-06
3.09931e-07
1.26519e-06
-4.37591e-07
1.28799e-06
3.45996e-07
1.25437e-06
4.38903e-08
1.25479e-06
-6.24155e-07
1.29649e-06
2.94322e-08
1.28571e-06
-3.27872e-08
1.27481e-06
-1.45335e-07
1.27532e-06
2.44214e-07
1.25944e-06
-2.1484e-07
1.2835e-06
4.39606e-07
1.27934e-06
-1.87808e-07
1.27864e-06
-1.60281e-07
1.2958e-06
2.21691e-09
1.28171e-06
1.66364e-08
1.29384e-06
2.88055e-08
1.28326e-06
9.33219e-08
1.29155e-06
4.70628e-08
1.2782e-06
1.25557e-07
8.71053e-08
1.2698e-06
1.33677e-06
3.17264e-07
1.32767e-06
-4.28491e-07
1.34246e-06
3.3121e-07
1.32013e-06
6.62205e-08
1.31617e-06
-6.20201e-07
1.35442e-06
-8.81717e-09
1.34547e-06
-2.38362e-08
1.33822e-06
-1.38086e-07
1.33651e-06
2.45928e-07
1.32782e-06
-2.06152e-07
1.34639e-06
4.21034e-07
1.35039e-06
-1.91803e-07
1.34298e-06
-1.52875e-07
1.35826e-06
-1.30664e-08
1.34998e-06
2.49204e-08
1.3555e-06
2.32845e-08
1.35221e-06
9.66075e-08
1.35381e-06
4.54715e-08
1.34865e-06
1.30712e-07
9.97658e-08
1.33599e-06
1.40092e-06
3.24696e-07
1.39505e-06
-4.22616e-07
1.40222e-06
3.2404e-07
1.38842e-06
8.00157e-08
1.38159e-06
-6.13374e-07
1.41331e-06
-4.05371e-08
1.40755e-06
-1.80687e-08
1.40267e-06
-1.33211e-07
1.40185e-06
2.46744e-07
1.39851e-06
-2.02809e-07
1.41475e-06
4.048e-07
1.41966e-06
-1.96717e-07
1.41206e-06
-1.45273e-07
1.42234e-06
-2.33525e-08
1.42024e-06
2.70267e-08
1.42234e-06
2.11868e-08
1.42206e-06
9.68868e-08
1.42181e-06
4.57212e-08
1.41917e-06
1.33351e-07
1.11884e-07
1.40705e-06
1.46981e-06
3.30564e-07
1.46661e-06
-4.19416e-07
1.46821e-06
3.2244e-07
1.45874e-06
8.94805e-08
1.45165e-06
-6.0628e-07
1.47579e-06
-6.46787e-08
1.47264e-06
-1.49178e-08
1.46929e-06
-1.29864e-07
1.47093e-06
2.45112e-07
1.47099e-06
-2.02867e-07
1.48597e-06
3.89811e-07
1.48813e-06
-1.9887e-07
1.48207e-06
-1.39211e-07
1.48882e-06
-3.01093e-08
1.48968e-06
2.61666e-08
1.49143e-06
1.94403e-08
1.49239e-06
9.59238e-08
1.4912e-06
4.69168e-08
1.4907e-06
1.33849e-07
1.23349e-07
1.47923e-06
1.54297e-06
3.33815e-07
1.54142e-06
-4.17873e-07
1.54001e-06
3.23855e-07
1.53188e-06
9.76102e-08
1.52603e-06
-6.00431e-07
1.54345e-06
-8.20991e-08
1.54107e-06
-1.25413e-08
1.53906e-06
-1.27853e-07
1.5431e-06
2.41069e-07
1.54515e-06
-2.04909e-07
1.55898e-06
3.7598e-07
1.55745e-06
-1.97344e-07
1.55234e-06
-1.34095e-07
1.55713e-06
-3.49037e-08
1.55922e-06
2.4079e-08
1.56108e-06
1.75778e-08
1.5634e-06
9.36003e-08
1.56111e-06
4.92104e-08
1.56262e-06
1.32342e-07
1.33832e-07
1.55213e-06
1.61963e-06
3.34309e-07
1.61872e-06
-4.16958e-07
1.61638e-06
3.26195e-07
1.6087e-06
1.05285e-07
1.60388e-06
-5.95607e-07
1.61622e-06
-9.44338e-08
1.61315e-06
-9.4733e-09
1.61228e-06
-1.2699e-07
1.61794e-06
2.35413e-07
1.62088e-06
-2.07853e-07
1.63372e-06
3.63149e-07
1.62888e-06
-1.92513e-07
1.62408e-06
-1.29292e-07
1.62743e-06
-3.82524e-08
1.63024e-06
2.12661e-08
1.63171e-06
1.61131e-08
1.63536e-06
8.99507e-08
1.63199e-06
5.25764e-08
1.63495e-06
1.29382e-07
1.43019e-07
1.62577e-06
1.69926e-06
3.32627e-07
1.69818e-06
-4.1588e-07
1.69623e-06
3.28148e-07
1.68954e-06
1.11973e-07
1.68456e-06
-5.90627e-07
1.69327e-06
-1.03142e-07
1.6892e-06
-5.41003e-09
1.68903e-06
-1.26816e-07
1.6954e-06
2.2904e-07
1.69828e-06
-2.10727e-07
1.71052e-06
3.50905e-07
1.70333e-06
-1.85325e-07
1.69864e-06
-1.24605e-07
1.70047e-06
-4.00806e-08
1.70379e-06
1.79503e-08
1.70428e-06
1.56224e-08
1.70887e-06
8.53565e-08
1.7045e-06
5.69464e-08
1.70823e-06
1.25656e-07
1.508e-07
1.70045e-06
1.78175e-06
3.29603e-07
1.77999e-06
-4.14128e-07
1.77911e-06
3.29034e-07
1.77422e-06
1.16865e-07
1.76793e-06
-5.84341e-07
1.77403e-06
-1.09242e-07
1.76949e-06
-8.70249e-10
1.76946e-06
-1.26782e-07
1.77589e-06
2.22601e-07
1.77784e-06
-2.1267e-07
1.78995e-06
3.38794e-07
1.78145e-06
-1.76828e-07
1.77692e-06
-1.2007e-07
1.77705e-06
-4.02122e-08
1.78069e-06
1.43112e-08
1.77979e-06
1.65228e-08
1.78486e-06
8.02848e-08
1.77959e-06
6.22137e-08
1.78334e-06
1.2191e-07
1.57153e-07
1.77698e-06
1.86741e-06
3.25946e-07
1.86471e-06
-4.11433e-07
1.86518e-06
3.28569e-07
1.86249e-06
1.19554e-07
1.85426e-06
-5.76117e-07
1.85847e-06
-1.13446e-07
1.85414e-06
3.4564e-09
1.85385e-06
-1.26489e-07
1.86003e-06
2.16422e-07
1.86042e-06
-2.13067e-07
1.87271e-06
3.26505e-07
1.86368e-06
-1.678e-07
1.85942e-06
-1.15806e-07
1.85779e-06
-3.85813e-08
1.86167e-06
1.04291e-08
1.85922e-06
1.89758e-08
1.86436e-06
7.51429e-08
1.85844e-06
6.81364e-08
1.86146e-06
1.18883e-07
1.62028e-07
1.85659e-06
1.95669e-06
3.22093e-07
1.95298e-06
-4.07719e-07
1.95486e-06
3.26691e-07
1.95428e-06
1.20129e-07
1.944e-06
-5.65833e-07
1.94684e-06
-1.16289e-07
1.94321e-06
7.09008e-09
1.94248e-06
-1.25759e-07
1.94832e-06
2.1058e-07
1.94689e-06
-2.11634e-07
1.95951e-06
3.13884e-07
1.95029e-06
-1.5858e-07
1.94646e-06
-1.11977e-07
1.94314e-06
-3.52616e-08
1.94729e-06
6.27857e-09
1.94341e-06
2.28549e-08
1.9483e-06
7.02574e-08
1.94212e-06
7.43119e-08
1.94382e-06
1.1718e-07
1.65324e-07
1.94053e-06
2.05004e-06
3.18239e-07
2.04536e-06
-4.03034e-07
2.04858e-06
3.23466e-07
2.04975e-06
1.18963e-07
2.03759e-06
-5.53676e-07
2.03946e-06
-1.18158e-07
2.03673e-06
9.82515e-09
2.03555e-06
-1.2458e-07
2.04111e-06
2.05021e-07
2.03785e-06
-2.08374e-07
2.05088e-06
3.00853e-07
2.04145e-06
-1.49151e-07
2.03825e-06
-1.08775e-07
2.03341e-06
-3.04212e-08
2.03788e-06
1.80904e-09
2.03292e-06
2.78055e-08
2.03726e-06
6.59258e-08
2.03134e-06
8.02235e-08
2.03142e-06
1.17107e-07
1.67039e-07
2.0297e-06
2.14781e-06
3.14425e-07
2.14226e-06
-3.97484e-07
2.14669e-06
3.19041e-07
2.14916e-06
1.16494e-07
2.13544e-06
-5.39962e-07
2.13657e-06
-1.19282e-07
2.13474e-06
1.16493e-08
2.13316e-06
-1.23e-07
2.13856e-06
1.99621e-07
2.13365e-06
-2.03457e-07
2.14716e-06
2.8734e-07
2.13734e-06
-1.39336e-07
2.13493e-06
-1.06365e-07
2.12879e-06
-2.42755e-08
2.13356e-06
-2.95829e-09
2.12802e-06
3.33468e-08
2.13147e-06
6.24735e-08
2.12636e-06
8.53327e-08
2.12478e-06
1.18687e-07
1.67329e-07
2.12449e-06
2.2503e-06
3.10618e-07
2.244e-06
-3.91192e-07
2.24944e-06
3.13609e-07
2.25281e-06
1.13121e-07
2.23789e-06
-5.2504e-07
2.23837e-06
-1.19763e-07
2.23737e-06
1.26494e-08
2.23543e-06
-1.21062e-07
2.24083e-06
1.94218e-07
2.23448e-06
-1.97101e-07
2.24856e-06
2.73261e-07
2.23817e-06
-1.28948e-07
2.23665e-06
-1.04843e-07
2.22944e-06
-1.70719e-08
2.23435e-06
-7.87021e-09
2.22875e-06
3.89557e-08
2.23095e-06
6.02736e-08
2.2271e-06
8.91776e-08
2.22411e-06
1.21677e-07
1.66561e-07
2.22488e-06
2.35773e-06
3.06761e-07
2.35082e-06
-3.8428e-07
2.35706e-06
3.07374e-07
2.36099e-06
1.09189e-07
2.3452e-06
-5.09254e-07
2.34507e-06
-1.19634e-07
2.34478e-06
1.29447e-08
2.34248e-06
-1.18767e-07
2.34807e-06
1.88633e-07
2.34048e-06
-1.89513e-07
2.3552e-06
2.58539e-07
2.34413e-06
-1.17877e-07
2.34349e-06
-1.04201e-07
2.33551e-06
-9.0939e-09
2.34029e-06
-1.26484e-08
2.33512e-06
4.41266e-08
2.33571e-06
5.96838e-08
2.33341e-06
9.1477e-08
2.32946e-06
1.25631e-07
1.65266e-07
2.33075e-06
2.47035e-06
3.02804e-07
2.46294e-06
-3.76863e-07
2.4698e-06
3.00509e-07
2.47399e-06
1.04994e-07
2.45765e-06
-4.92912e-07
2.45693e-06
-1.18917e-07
2.45723e-06
1.26464e-08
2.45454e-06
-1.16074e-07
2.46048e-06
1.82694e-07
2.45183e-06
-1.80863e-07
2.46723e-06
2.43137e-07
2.45546e-06
-1.06102e-07
2.45559e-06
-1.04332e-07
2.44717e-06
-6.73973e-10
2.45144e-06
-1.69218e-08
2.44716e-06
4.84058e-08
2.44594e-06
6.0908e-08
2.44515e-06
9.2263e-08
2.44079e-06
1.29989e-07
1.63984e-07
2.44207e-06
2.58838e-06
2.98719e-07
2.58056e-06
-3.69043e-07
2.58793e-06
2.93141e-07
2.59213e-06
1.00791e-07
2.57549e-06
-4.76268e-07
2.57421e-06
-1.17637e-07
2.57502e-06
1.18344e-08
2.57186e-06
-1.1292e-07
2.5783e-06
1.76261e-07
2.56872e-06
-1.71289e-07
2.58478e-06
2.27077e-07
2.57237e-06
-9.3691e-08
2.57307e-06
-1.05029e-07
2.56459e-06
7.8022e-09
2.56795e-06
-2.02751e-08
2.56492e-06
5.14385e-08
2.5619e-06
6.39243e-08
2.56227e-06
9.18957e-08
2.55815e-06
1.34106e-07
1.63159e-07
2.55898e-06
2.71205e-06
2.94494e-07
2.70391e-06
-3.60901e-07
2.71171e-06
2.85341e-07
2.71572e-06
9.67793e-08
2.69897e-06
-4.59515e-07
2.69715e-06
-1.15816e-07
2.69844e-06
1.05476e-08
2.69475e-06
-1.09237e-07
2.70177e-06
1.69241e-07
2.6914e-06
-1.60916e-07
2.70803e-06
2.1045e-07
2.69513e-06
-8.07924e-08
2.69612e-06
-1.06016e-07
2.68799e-06
1.5927e-08
2.69003e-06
-2.23144e-08
2.68845e-06
5.30208e-08
2.68389e-06
6.84814e-08
2.68483e-06
9.09526e-08
2.68159e-06
1.37347e-07
1.63048e-07
2.6817e-06
2.84164e-06
2.90124e-07
2.83323e-06
-3.52495e-07
2.84143e-06
2.77143e-07
2.8451e-06
9.31076e-08
2.82838e-06
-4.42795e-07
2.82602e-06
-1.13457e-07
2.82778e-06
8.79069e-09
2.82351e-06
-1.04972e-07
2.83115e-06
1.61601e-07
2.82011e-06
-1.49873e-07
2.83713e-06
1.93428e-07
2.82399e-06
-6.76433e-08
2.82493e-06
-1.06959e-07
2.81755e-06
2.33079e-08
2.81797e-06
-2.27333e-08
2.81784e-06
5.31443e-08
2.81218e-06
7.41444e-08
2.81309e-06
9.00432e-08
2.8112e-06
1.39239e-07
1.63665e-07
2.81058e-06
2.97741e-06
2.85608e-07
2.96878e-06
-3.4386e-07
2.97736e-06
2.68557e-07
2.98059e-06
8.98847e-08
2.96401e-06
-4.26216e-07
2.96109e-06
-1.1054e-07
2.96333e-06
6.55142e-09
2.95846e-06
-1.00105e-07
2.96669e-06
1.53372e-07
2.95514e-06
-1.38322e-07
2.97232e-06
1.76243e-07
2.95922e-06
-5.4536e-08
2.95977e-06
-1.07514e-07
2.95346e-06
2.96212e-08
2.9521e-06
-2.13725e-08
2.95324e-06
5.20037e-08
2.94701e-06
8.03782e-08
2.94737e-06
8.96736e-08
2.94707e-06
1.39546e-07
1.648e-07
2.94593e-06
3.11967e-06
2.80942e-07
3.11083e-06
-3.35013e-07
3.11981e-06
2.59576e-07
3.12249e-06
8.71975e-08
3.10615e-06
-4.09874e-07
3.10264e-06
-1.07025e-07
3.10537e-06
3.81714e-09
3.09992e-06
-9.46527e-08
3.10864e-06
1.44648e-07
3.09679e-06
-1.26471e-07
3.11384e-06
1.59192e-07
3.10111e-06
-4.18055e-08
3.10095e-06
-1.0735e-07
3.09593e-06
3.46414e-08
3.09279e-06
-1.82314e-08
3.09486e-06
4.99306e-08
3.08857e-06
8.66651e-08
3.08809e-06
9.01571e-08
3.08933e-06
1.38306e-07
1.66058e-07
3.08807e-06
3.26873e-06
2.7612e-07
3.25968e-06
-3.25957e-07
3.26907e-06
2.50184e-07
3.27114e-06
8.51264e-08
3.25513e-06
-3.93865e-07
3.25097e-06
-1.02863e-07
3.25419e-06
5.93499e-10
3.24823e-06
-8.86891e-08
3.25728e-06
1.35592e-07
3.24539e-06
-1.14577e-07
3.26198e-06
1.42603e-07
3.24995e-06
-2.9773e-08
3.24881e-06
-1.06209e-07
3.24516e-06
3.8284e-08
3.24039e-06
-1.34545e-08
3.243e-06
4.73166e-08
3.23711e-06
9.25573e-08
3.23563e-06
9.16367e-08
3.23818e-06
1.35752e-07
1.66964e-07
3.23727e-06
3.42492e-06
2.71131e-07
3.41565e-06
-3.16683e-07
3.42548e-06
2.4035e-07
3.42685e-06
8.37559e-08
3.41128e-06
-3.78289e-07
3.40642e-06
-9.80043e-08
3.4101e-06
-3.08745e-09
3.40375e-06
-8.23449e-08
3.41291e-06
1.26436e-07
3.40128e-06
-1.02945e-07
3.41707e-06
1.26807e-07
3.406e-06
-1.86986e-08
3.40373e-06
-1.03937e-07
3.40139e-06
4.06192e-08
3.39523e-06
-7.28895e-09
3.39802e-06
4.45253e-08
3.39287e-06
9.77065e-08
3.39039e-06
9.41175e-08
3.39387e-06
1.32268e-07
1.67037e-07
3.3938e-06
3.58858e-06
2.6596e-07
3.57907e-06
-3.07166e-07
3.58938e-06
2.30031e-07
3.58996e-06
8.31786e-08
3.57493e-06
-3.63257e-07
3.56933e-06
-9.24036e-08
3.5734e-06
-7.16149e-09
3.56687e-06
-7.58112e-08
3.57583e-06
1.17474e-07
3.56479e-06
-9.19008e-08
3.57951e-06
1.12084e-07
3.56953e-06
-8.7197e-09
3.56612e-06
-1.00524e-07
3.56489e-06
4.18436e-08
3.55763e-06
-2.84481e-11
3.56028e-06
4.18728e-08
3.55616e-06
1.01835e-07
3.55276e-06
9.75148e-08
3.55673e-06
1.28298e-07
1.65883e-07
3.55788e-06
3.76008e-06
2.60586e-07
3.75028e-06
-2.97369e-07
3.76114e-06
2.19171e-07
3.76082e-06
8.34962e-08
3.74644e-06
-3.48876e-07
3.74007e-06
-8.6029e-08
3.74443e-06
-1.15263e-08
3.73796e-06
-6.93355e-08
3.74639e-06
1.09042e-07
3.73624e-06
-8.17518e-08
3.74971e-06
9.86133e-08
3.74081e-06
1.87952e-10
3.73637e-06
-9.60917e-08
3.73601e-06
4.22035e-08
3.72792e-06
8.06244e-09
3.73017e-06
3.96277e-08
3.7273e-06
1.04703e-07
3.72316e-06
1.01652e-07
3.72713e-06
1.24334e-07
1.63258e-07
3.72975e-06
3.93979e-06
2.54983e-07
3.92966e-06
-2.87237e-07
3.94113e-06
2.07695e-07
3.93982e-06
8.4812e-08
3.92618e-06
-3.3524e-07
3.91904e-06
-7.88913e-08
3.92354e-06
-1.60206e-08
3.91743e-06
-6.32216e-08
3.92497e-06
1.01493e-07
3.91597e-06
-7.27432e-08
3.92814e-06
8.64426e-08
3.92011e-06
8.20982e-09
3.91488e-06
-9.08538e-08
3.91515e-06
4.19351e-08
3.90643e-06
1.67759e-08
3.90804e-06
3.80222e-08
3.90662e-06
1.06118e-07
3.90203e-06
1.06242e-07
3.9055e-06
1.20868e-07
1.59119e-07
3.90964e-06
4.12811e-06
2.49119e-07
4.11758e-06
-2.76701e-07
4.12976e-06
1.95518e-07
4.12735e-06
8.72219e-08
4.11451e-06
-3.22404e-07
4.10669e-06
-7.10685e-08
4.11107e-06
-2.04069e-08
4.10567e-06
-5.78165e-08
4.11201e-06
9.51457e-08
4.10426e-06
-6.49921e-08
4.11524e-06
7.54629e-08
4.10782e-06
1.56353e-08
4.10196e-06
-8.49914e-08
4.10272e-06
4.11688e-08
4.09358e-06
2.59149e-08
4.09433e-06
3.72788e-08
4.09445e-06
1.05992e-07
4.0898e-06
1.10889e-07
4.09235e-06
1.18322e-07
1.53671e-07
4.0978e-06
4.32546e-06
2.42957e-07
4.31444e-06
-2.65679e-07
4.32741e-06
1.82547e-07
4.32384e-06
9.07994e-08
4.3118e-06
-3.10363e-07
4.30345e-06
-6.27201e-08
4.30742e-06
-2.43766e-08
4.30307e-06
-5.34692e-08
4.308e-06
9.02134e-08
4.30144e-06
-5.84317e-08
4.31149e-06
6.54151e-08
4.30436e-06
2.27666e-08
4.29792e-06
-7.85493e-08
4.29919e-06
3.98961e-08
4.28984e-06
3.52678e-08
4.28951e-06
3.76022e-08
4.29111e-06
1.04396e-07
4.28688e-06
1.15117e-07
4.28826e-06
1.16943e-07
1.4739e-07
4.29454e-06
4.53228e-06
2.36453e-07
4.52067e-06
-2.54073e-07
4.53454e-06
1.68683e-07
4.52976e-06
9.55764e-08
4.51843e-06
-2.99033e-07
4.50981e-06
-5.41015e-08
4.51299e-06
-2.75566e-08
4.51001e-06
-5.04868e-08
4.51347e-06
8.67549e-08
4.50782e-06
-5.27812e-08
4.5173e-06
5.59312e-08
4.51025e-06
2.9818e-08
4.5031e-06
-7.14002e-08
4.50498e-06
3.80141e-08
4.4957e-06
4.45458e-08
4.49412e-06
3.91817e-08
4.49694e-06
1.0158e-07
4.49364e-06
1.18421e-07
4.49383e-06
1.16749e-07
1.40929e-07
4.50029e-06
4.74901e-06
2.29558e-07
4.73671e-06
-2.41777e-07
4.75155e-06
1.53845e-07
4.74561e-06
1.01517e-07
4.73481e-06
-2.88229e-07
4.72628e-06
-4.55685e-08
4.72824e-06
-2.95246e-08
4.72684e-06
-4.90874e-08
4.72898e-06
8.46189e-08
4.72375e-06
-4.75535e-08
4.73304e-06
4.66393e-08
4.72604e-06
3.68237e-08
4.71794e-06
-6.33045e-08
4.7205e-06
3.5461e-08
4.71171e-06
5.33343e-08
4.70872e-06
4.21698e-08
4.71237e-06
9.79253e-08
4.71037e-06
1.20423e-07
4.70966e-06
1.17457e-07
1.34973e-07
4.71562e-06
4.97613e-06
2.22221e-07
4.96304e-06
-2.28685e-07
4.97891e-06
1.37975e-07
4.97193e-06
1.08499e-07
4.96136e-06
-2.7766e-07
4.95335e-06
-3.75553e-08
4.95368e-06
-2.9859e-08
4.95395e-06
-4.9357e-08
4.95509e-06
8.34768e-08
4.94972e-06
-4.21809e-08
4.95905e-06
3.73067e-08
4.95229e-06
4.35921e-08
4.94295e-06
-5.39663e-08
4.94611e-06
3.22953e-08
4.93831e-06
6.11346e-08
4.93391e-06
4.65716e-08
4.93791e-06
9.39293e-08
4.93741e-06
1.20916e-07
4.93627e-06
1.18603e-07
1.29988e-07
4.94125e-06
5.21415e-06
2.14389e-07
5.20015e-06
-2.14689e-07
5.21707e-06
1.2106e-07
5.20928e-06
1.16289e-07
5.19854e-06
-2.66919e-07
5.19154e-06
-3.05591e-08
5.18987e-06
-2.8185e-08
5.1917e-06
-5.11888e-08
5.1924e-06
8.27726e-08
5.18627e-06
-3.6052e-08
5.19568e-06
2.78961e-08
5.18952e-06
4.97577e-08
5.17871e-06
-4.31535e-08
5.18222e-06
2.87806e-08
5.17593e-06
6.74294e-08
5.17032e-06
5.21733e-08
5.17412e-06
9.01291e-08
5.17513e-06
1.19915e-07
5.17404e-06
1.19688e-07
1.26097e-07
5.17793e-06
5.46357e-06
2.06011e-07
5.44858e-06
-1.99698e-07
5.46649e-06
1.03145e-07
5.45825e-06
1.24527e-07
5.44683e-06
-2.55493e-07
5.44137e-06
-2.51005e-08
5.43741e-06
-2.42309e-08
5.4405e-06
-5.42727e-08
5.44144e-06
8.18293e-08
5.43407e-06
-2.86806e-08
5.44338e-06
1.85842e-08
5.43821e-06
5.49252e-08
5.42592e-06
-3.08567e-08
5.42934e-06
2.53524e-08
5.42494e-06
7.1829e-08
5.41853e-06
5.85925e-08
5.42167e-06
8.69801e-08
5.42399e-06
1.17604e-07
5.42334e-06
1.20332e-07
1.23122e-07
5.42632e-06
5.72493e-06
1.97041e-07
5.70887e-06
-1.83637e-07
5.72767e-06
8.43485e-08
5.71947e-06
1.32727e-07
5.70676e-06
-2.4279e-07
5.70333e-06
-2.16631e-08
5.697e-06
-1.79022e-08
5.70079e-06
-5.80634e-08
5.70266e-06
7.99593e-08
5.69378e-06
-1.98023e-08
5.70259e-06
9.76952e-09
5.69885e-06
5.86639e-08
5.68535e-06
-1.73537e-08
5.68809e-06
2.26179e-08
5.68578e-06
7.41386e-08
5.67906e-06
6.53137e-08
5.68122e-06
8.48172e-08
5.68455e-06
1.14277e-07
5.68459e-06
1.20287e-07
1.20799e-07
5.68691e-06
5.99879e-06
1.8744e-07
5.98162e-06
-1.66467e-07
6.0011e-06
6.487e-08
5.99354e-06
1.40288e-07
5.97894e-06
-2.28193e-07
5.97791e-06
-2.06302e-08
5.96942e-06
-9.41536e-09
5.97308e-06
-6.1722e-08
5.97646e-06
7.65813e-08
5.96618e-06
-9.52181e-09
5.97379e-06
2.16159e-09
5.97195e-06
6.05038e-08
5.95781e-06
-3.21232e-09
5.95918e-06
2.12484e-08
5.95888e-06
7.44296e-08
5.95243e-06
7.17668e-08
5.95342e-06
8.38275e-08
5.95743e-06
1.1027e-07
5.9583e-06
1.19415e-07
1.18913e-07
5.96019e-06
6.28574e-06
1.77187e-07
6.26745e-06
-1.4818e-07
6.28734e-06
4.49856e-08
6.28108e-06
1.46545e-07
6.26404e-06
-2.11155e-07
6.26557e-06
-2.2154e-08
6.25553e-06
6.22244e-10
6.25798e-06
-6.41699e-08
6.26323e-06
7.13283e-08
6.252e-06
1.70491e-09
6.25762e-06
-3.45557e-09
6.25786e-06
6.02678e-08
6.2439e-06
1.07431e-08
6.24344e-06
2.17053e-08
6.24478e-06
7.30918e-08
6.23918e-06
7.73673e-08
6.23897e-06
8.40404e-08
6.24326e-06
1.05983e-07
6.24509e-06
1.17581e-07
1.17327e-07
6.24668e-06
6.58638e-06
1.66277e-07
6.56701e-06
-1.28811e-07
6.58696e-06
2.50405e-08
6.58268e-06
1.50824e-07
6.56283e-06
-1.91305e-07
6.56671e-06
-2.60359e-08
6.55603e-06
1.13043e-08
6.55616e-06
-6.43068e-08
6.56335e-06
6.414e-08
6.55195e-06
1.3105e-08
6.55486e-06
-6.36414e-09
6.55713e-06
5.8001e-08
6.54408e-06
2.3787e-08
6.54174e-06
2.40472e-08
6.54409e-06
7.07449e-08
6.5398e-06
8.16535e-08
6.53859e-06
8.52526e-08
6.54269e-06
1.01889e-07
6.54556e-06
1.1471e-07
1.15853e-07
6.54703e-06
6.90134e-06
1.5473e-07
6.88096e-06
-1.08437e-07
6.90056e-06
5.44071e-09
6.89889e-06
1.52499e-07
6.87615e-06
-1.68564e-07
6.88167e-06
-3.15632e-08
6.87147e-06
2.15096e-08
6.86854e-06
-6.13767e-08
6.87726e-06
5.54238e-08
6.86667e-06
2.36903e-08
6.86662e-06
-6.31449e-09
6.87026e-06
5.43659e-08
6.85885e-06
3.51914e-08
6.85485e-06
2.80504e-08
6.85755e-06
6.80434e-08
6.85478e-06
8.44195e-08
6.85299e-06
8.70419e-08
6.85646e-06
9.8424e-08
6.86027e-06
1.109e-07
1.14166e-07
6.86196e-06
7.23127e-06
1.42597e-07
7.21001e-06
-8.71807e-08
7.22881e-06
-1.33613e-08
7.23023e-06
1.51081e-07
7.20493e-06
-1.43258e-07
7.21105e-06
-3.76913e-08
7.2024e-06
3.016e-08
7.19617e-06
-5.51421e-08
7.20554e-06
4.6057e-08
7.19672e-06
3.25048e-08
7.19397e-06
-3.56298e-09
7.19802e-06
5.03135e-08
7.18867e-06
4.45479e-08
7.18349e-06
3.32251e-08
7.18597e-06
6.55603e-08
7.18471e-06
8.56893e-08
7.18283e-06
8.89196e-08
7.1854e-06
9.58476e-08
7.18981e-06
1.06499e-07
1.11865e-07
7.19211e-06
7.57686e-06
1.29967e-07
7.55496e-06
-6.5285e-08
7.57241e-06
-3.0808e-08
7.57723e-06
1.46258e-07
7.55005e-06
-1.16076e-07
7.55561e-06
-4.32542e-08
7.54939e-06
3.63811e-08
7.54013e-06
-4.58799e-08
7.54906e-06
3.71243e-08
7.54253e-06
3.90389e-08
7.53778e-06
1.18341e-09
7.5414e-06
4.66936e-08
7.53412e-06
5.18289e-08
7.5283e-06
3.90427e-08
7.53026e-06
6.36053e-08
7.53023e-06
8.57124e-08
7.52868e-06
9.04696e-08
7.5304e-06
9.41314e-08
7.53488e-06
1.02017e-07
1.0868e-07
7.53807e-06
7.93881e-06
1.16972e-07
7.91668e-06
-4.316e-08
7.9321e-06
-4.62233e-08
7.94042e-06
1.3793e-07
7.91232e-06
-8.79739e-08
7.91618e-06
-4.71079e-08
7.91298e-06
3.9579e-08
7.90142e-06
-3.43211e-08
7.90867e-06
2.98766e-08
7.90458e-06
4.31228e-08
7.89872e-06
7.04741e-09
7.90138e-06
4.40369e-08
7.89592e-06
5.72827e-08
7.88992e-06
4.50401e-08
7.89121e-06
6.23198e-08
7.89216e-06
8.47579e-08
7.89118e-06
9.14537e-08
7.89227e-06
9.30404e-08
7.89637e-06
9.79148e-08
1.04643e-07
7.90041e-06
8.31786e-06
1.03789e-07
8.29605e-06
-2.13446e-08
8.3087e-06
-5.88697e-08
8.32041e-06
1.26211e-07
8.29254e-06
-6.00967e-08
8.2937e-06
-4.82733e-08
8.29359e-06
3.96928e-08
8.28086e-06
-2.15903e-08
8.28545e-06
2.5285e-08
8.28347e-06
4.51008e-08
8.27736e-06
1.31643e-08
8.27893e-06
4.24634e-08
8.27492e-06
6.12891e-08
8.26906e-06
5.08976e-08
8.26965e-06
6.17331e-08
8.27131e-06
8.30954e-08
8.27102e-06
9.17427e-08
8.27179e-06
9.22728e-08
8.27525e-06
9.44571e-08
1.00049e-07
8.27984e-06
8.71481e-06
9.06395e-08
8.69395e-06
-4.84536e-10
8.70306e-06
-6.79812e-08
8.71788e-06
1.11396e-07
8.69147e-06
-3.36927e-08
8.68928e-06
-4.60759e-08
8.69173e-06
3.72424e-08
8.6791e-06
-8.96626e-09
8.6807e-06
2.36902e-08
8.67995e-06
4.58437e-08
8.67428e-06
1.88381e-08
8.67491e-06
4.18371e-08
8.67202e-06
6.41733e-08
8.66652e-06
5.64045e-08
8.66642e-06
6.18275e-08
8.66854e-06
8.09795e-08
8.66899e-06
9.12913e-08
8.66969e-06
9.15763e-08
8.67251e-06
9.16354e-08
9.53619e-08
8.67719e-06
9.13049e-06
7.77734e-08
9.11124e-06
1.87622e-08
9.11622e-06
-7.29648e-08
9.1336e-06
9.40215e-08
9.10989e-06
-9.98267e-09
9.10407e-06
-4.02602e-08
9.10819e-06
3.31208e-08
9.09671e-06
2.5117e-09
9.09548e-06
2.49211e-08
9.09512e-06
4.62051e-08
9.09013e-06
2.38287e-08
9.09011e-06
4.18599e-08
9.0881e-06
6.61777e-08
9.08316e-06
6.13534e-08
9.08239e-06
6.25924e-08
9.08473e-06
7.8638e-08
9.0859e-06
9.01209e-08
9.08672e-06
9.07569e-08
9.08908e-06
8.92808e-08
9.09981e-08
9.09344e-06
9.56578e-06
6.54501e-08
9.54876e-06
3.57894e-08
9.54932e-06
-7.35304e-08
9.56848e-06
7.4868e-08
9.54844e-06
1.00575e-08
9.53924e-06
-3.10693e-08
9.54388e-06
2.84869e-08
9.53429e-06
1.20958e-08
9.53088e-06
2.83373e-08
9.53016e-06
4.69257e-08
9.52568e-06
2.83085e-08
9.52528e-06
4.22533e-08
9.5241e-06
6.73657e-08
9.51983e-06
6.56168e-08
9.51851e-06
6.39134e-08
9.52082e-06
7.63259e-08
9.52266e-06
8.828e-08
9.52373e-06
8.96901e-08
9.52581e-06
8.72036e-08
8.71234e-08
9.52968e-06
1.00217e-05
5.39151e-08
1.00073e-05
5.01103e-08
1.00036e-05
-6.97841e-08
1.00235e-05
5.49891e-08
1.00078e-05
2.5771e-08
9.99594e-06
-1.92389e-08
9.99989e-06
2.45377e-08
9.99251e-06
1.94707e-08
9.98775e-06
3.30954e-08
9.98627e-06
4.84117e-08
9.98208e-06
3.24984e-08
9.98136e-06
4.29668e-08
9.98085e-06
6.78845e-08
9.97738e-06
6.90873e-08
9.97579e-06
6.54956e-08
9.9778e-06
7.43215e-08
9.98023e-06
8.58469e-08
9.98162e-06
8.83025e-08
9.98357e-06
8.52526e-08
8.36795e-08
9.98701e-06
1.04992e-05
4.33757e-08
1.04879e-05
6.13978e-08
1.04803e-05
-6.22289e-08
1.04997e-05
3.56318e-08
1.04886e-05
3.68851e-08
1.04751e-05
-5.74784e-09
1.04775e-05
2.20782e-08
1.04722e-05
2.48216e-08
1.04669e-05
3.83632e-08
1.04647e-05
5.06371e-08
1.04605e-05
3.67283e-08
1.04594e-05
4.40504e-08
1.04593e-05
6.79451e-08
1.04567e-05
7.17122e-08
1.04551e-05
6.70594e-08
1.04568e-05
7.26953e-08
1.04596e-05
8.29999e-08
1.04614e-05
8.65163e-08
1.04633e-05
8.33441e-08
8.05728e-08
1.04664e-05
1.09994e-05
3.39907e-08
1.09913e-05
6.94904e-08
1.09807e-05
-5.16576e-08
1.09983e-05
1.80764e-08
1.09917e-05
4.3518e-08
1.09777e-05
8.25029e-09
1.09782e-05
2.15409e-08
1.09744e-05
2.86511e-08
1.09693e-05
4.34804e-08
1.09665e-05
5.33808e-08
1.09622e-05
4.10672e-08
1.09606e-05
4.56626e-08
1.09606e-05
6.78591e-08
1.09588e-05
7.35086e-08
1.09574e-05
6.84692e-08
1.09588e-05
7.13056e-08
1.09618e-05
8.00074e-08
1.09641e-05
8.41964e-08
1.0966e-05
8.14638e-08
7.76862e-08
1.09689e-05
1.15235e-05
2.58588e-08
1.15186e-05
7.43993e-08
1.15059e-05
-3.90119e-08
1.15206e-05
3.43649e-09
1.1518e-05
4.60836e-08
1.15046e-05
2.16714e-08
1.15031e-05
2.29954e-08
1.15003e-05
3.15069e-08
1.14956e-05
4.81503e-08
1.14925e-05
5.64512e-08
1.14884e-05
4.51833e-08
1.14861e-05
4.79827e-08
1.14861e-05
6.78428e-08
1.14849e-05
7.47665e-08
1.14837e-05
6.95943e-08
1.1485e-05
7.00341e-08
1.1488e-05
7.70167e-08
1.14908e-05
8.13807e-08
1.14928e-05
7.95072e-08
7.50599e-08
1.14954e-05
1.20727e-05
1.9006e-08
1.20707e-05
7.63569e-08
1.2057e-05
-2.53316e-08
1.2068e-05
-7.51041e-09
1.20687e-05
4.54033e-08
1.20568e-05
3.35534e-08
1.20536e-05
2.61578e-08
1.20513e-05
3.38355e-08
1.2047e-05
5.24099e-08
1.20439e-05
5.96087e-08
1.20401e-05
4.89698e-08
1.20375e-05
5.06011e-08
1.20371e-05
6.82099e-08
1.2036e-05
7.58308e-08
1.20352e-05
7.04461e-08
1.20364e-05
6.88438e-08
1.20394e-05
7.40175e-08
1.20425e-05
7.8258e-08
1.20448e-05
7.72322e-08
7.27617e-08
1.20471e-05
1.26482e-05
1.33898e-08
1.26488e-05
7.57716e-08
1.26351e-05
-1.15972e-08
1.2642e-05
-1.44061e-08
1.26449e-05
4.2469e-08
1.26352e-05
4.32487e-08
1.26308e-05
3.0511e-08
1.26287e-05
3.60157e-08
1.26248e-05
5.62652e-08
1.26216e-05
6.2827e-08
1.26182e-05
5.23472e-08
1.26158e-05
5.29702e-08
1.2615e-05
6.908e-08
1.26139e-05
7.69319e-08
1.2613e-05
7.13222e-08
1.26142e-05
6.76637e-08
1.26172e-05
7.1026e-08
1.26205e-05
7.49598e-08
1.26232e-05
7.45234e-08
7.06037e-08
1.26253e-05
1.32514e-05
8.91811e-09
1.3254e-05
7.31564e-08
1.32411e-05
1.35234e-09
1.3244e-05
-1.73596e-08
1.32481e-05
3.83449e-08
1.32409e-05
5.0492e-08
1.32359e-05
3.54857e-08
1.32338e-05
3.81544e-08
1.32304e-05
5.9679e-08
1.32269e-05
6.63153e-08
1.3224e-05
5.52594e-08
1.32222e-05
5.47937e-08
1.32212e-05
7.00606e-08
1.32199e-05
7.82293e-08
1.32187e-05
7.25396e-08
1.32198e-05
6.65673e-08
1.32227e-05
6.80442e-08
1.32262e-05
7.15062e-08
1.32292e-05
7.14967e-08
6.82148e-08
1.32316e-05
1.38836e-05
5.45708e-09
1.38877e-05
6.90945e-08
1.38761e-05
1.29018e-08
1.38757e-05
-1.69332e-08
1.388e-05
3.4045e-08
1.38751e-05
5.54418e-08
1.38701e-05
4.04726e-08
1.3868e-05
4.02414e-08
1.3865e-05
6.26942e-08
1.38613e-05
6.99957e-08
1.38586e-05
5.80009e-08
1.38574e-05
5.59025e-08
1.3857e-05
7.048e-08
1.38555e-05
7.97803e-08
1.38539e-05
7.41472e-08
1.38545e-05
6.59496e-08
1.38575e-05
6.49922e-08
1.38612e-05
6.78051e-08
1.38645e-05
6.82127e-08
6.55266e-08
1.38672e-05
1.45463e-05
2.86106e-09
1.45512e-05
6.41404e-08
1.45414e-05
2.27108e-08
1.45384e-05
-1.39653e-08
1.45421e-05
3.03618e-08
1.4539e-05
5.85343e-08
1.45345e-05
4.49908e-08
1.45326e-05
4.21746e-08
1.45301e-05
6.5187e-08
1.45263e-05
7.37412e-08
1.45233e-05
6.1037e-08
1.45229e-05
5.63166e-08
1.45235e-05
6.98447e-08
1.45222e-05
8.10833e-08
1.45202e-05
7.61759e-08
1.452e-05
6.61328e-08
1.45229e-05
6.21271e-08
1.45268e-05
6.38527e-08
1.45304e-05
6.46412e-08
6.2512e-08
1.45334e-05
1.52408e-05
9.76652e-10
1.52461e-05
5.88006e-08
1.52381e-05
3.06672e-08
1.52335e-05
-9.33138e-09
1.52362e-05
2.77069e-08
1.52344e-05
6.03297e-08
1.52305e-05
4.88526e-08
1.52289e-05
4.37842e-08
1.52271e-05
6.69447e-08
1.52235e-05
7.74286e-08
1.52199e-05
6.45479e-08
1.52198e-05
5.6472e-08
1.52216e-05
6.80376e-08
1.52215e-05
8.12221e-08
1.52191e-05
7.85283e-08
1.52182e-05
6.7074e-08
1.52203e-05
5.99776e-08
1.52244e-05
5.97361e-08
1.52283e-05
6.07596e-08
5.92389e-08
1.52316e-05
1.59686e-05
-3.08562e-10
1.5974e-05
5.34235e-08
1.59678e-05
3.68653e-08
1.59623e-05
-3.8155e-09
1.59638e-05
2.62069e-08
1.59628e-05
6.12974e-08
1.59595e-05
5.21557e-08
1.59584e-05
4.49248e-08
1.59575e-05
6.77728e-08
1.59541e-05
8.08864e-08
1.59503e-05
6.83593e-08
1.59497e-05
5.70659e-08
1.59525e-05
6.52159e-08
1.59541e-05
7.95729e-08
1.59522e-05
8.05098e-08
1.59506e-05
6.86838e-08
1.59517e-05
5.88561e-08
1.59556e-05
5.5779e-08
1.59598e-05
5.65918e-08
5.57841e-08
1.59633e-05
1.67314e-05
-1.08003e-09
1.67366e-05
4.82354e-08
1.67319e-05
4.15309e-08
1.67261e-05
2.02592e-09
1.67266e-05
2.56622e-08
1.67261e-05
6.1793e-08
1.67231e-05
5.51735e-08
1.67224e-05
4.55714e-08
1.67228e-05
6.74538e-08
1.67199e-05
8.37906e-08
1.67158e-05
7.23966e-08
1.67145e-05
5.83778e-08
1.67177e-05
6.2003e-08
1.67211e-05
7.61833e-08
1.67207e-05
8.09419e-08
1.67185e-05
7.08317e-08
1.67186e-05
5.87427e-08
1.67218e-05
5.26009e-08
1.67262e-05
5.21856e-08
5.22051e-08
1.67298e-05
1.75307e-05
-1.37791e-09
1.75356e-05
4.32786e-08
1.75322e-05
4.49939e-08
1.75263e-05
7.84588e-09
1.75262e-05
2.57435e-08
1.7526e-05
6.20323e-08
1.75231e-05
5.80825e-08
1.75227e-05
4.60059e-08
1.75242e-05
6.58943e-08
1.75224e-05
8.56299e-08
1.75181e-05
7.66368e-08
1.75162e-05
6.03058e-08
1.7519e-05
5.92662e-08
1.75237e-05
7.14396e-08
1.75254e-05
7.92906e-08
1.75235e-05
7.27146e-08
1.75226e-05
5.95606e-08
1.75245e-05
5.0787e-08
1.75287e-05
4.79156e-08
4.85149e-08
1.75324e-05
1.83682e-05
-1.24154e-09
1.83729e-05
3.85731e-08
1.83704e-05
4.75361e-08
1.83647e-05
1.35182e-08
1.83643e-05
2.6095e-08
1.83644e-05
6.20156e-08
1.83614e-05
6.10239e-08
1.83608e-05
4.66396e-08
1.83635e-05
6.31764e-08
1.83632e-05
8.59004e-08
1.83591e-05
8.07653e-08
1.83566e-05
6.28356e-08
1.83583e-05
5.75237e-08
1.83636e-05
6.61373e-08
1.83672e-05
7.57239e-08
1.83666e-05
7.33195e-08
1.8365e-05
6.11086e-08
1.83655e-05
5.03484e-08
1.83687e-05
4.47377e-08
4.44879e-08
1.83727e-05
1.92459e-05
-7.12974e-10
1.92503e-05
3.4151e-08
1.92485e-05
4.92854e-08
1.9243e-05
1.90446e-08
1.92425e-05
2.66174e-08
1.9243e-05
6.15105e-08