/*--------------------------------*- C++ -*----------------------------------*\
| =========                 |                                                 |
| \\      /  F ield         | OpenFOAM: The Open Source CFD Toolbox           |
|  \\    /   O peration     | Version:  2106                                  |
|   \\  /    A nd           | Website:  www.openfoam.com                      |
|    \\/     M anipulation  |                                                 |
\*---------------------------------------------------------------------------*/
FoamFile
{
    version     2.0;
    format      ascii;
    arch        "LSB;label=32;scalar=64";
    class       volVectorField;
    location    "0.625";
    object      U;
}
// * * * * * * * * * * * * * * * * * * * * * * * * * * * * * * * * * * * * * //

dimensions      [0 1 -1 0 0 0 0];

internalField   nonuniform List<vector> 
9600
(
(0.86579 0.002319 0)
(1.13784 -0.00606506 0)
(0.807304 -0.00248775 0)
(1.21542 0.00970443 0)
(0.859382 -0.0010074 0)
(1.11401 0.00530304 0)
(0.871756 -0.0062541 0)
(1.12446 0.00552481 0)
(0.883417 -0.0064319 0)
(1.12466 0.00281935 0)
(0.887676 0.000782511 0)
(1.12189 0.00596278 0)
(0.900614 0.00174048 0)
(1.10723 0.00491548 0)
(0.898838 -0.00265936 0)
(1.10158 -0.0015299 0)
(0.883108 0.000276888 0)
(1.10232 -0.00616866 0)
(0.863952 0.000731956 0)
(1.11025 -0.00502941 0)
(0.874841 0.0022201 0)
(1.12572 -0.00544635 0)
(0.81819 -0.00345783 0)
(1.20281 0.00936951 0)
(0.880259 -0.000217678 0)
(1.10259 0.00542004 0)
(0.89368 -0.00653372 0)
(1.11099 0.00550338 0)
(0.911149 -0.00658575 0)
(1.10807 0.00290582 0)
(0.918863 0.000680909 0)
(1.09667 0.0058797 0)
(0.940042 0.00183159 0)
(1.07118 0.00508766 0)
(0.952158 -0.00252281 0)
(1.04903 -0.00109402 0)
(0.955149 0.000310899 0)
(1.0246 -0.00622881 0)
(0.963855 0.00137842 0)
(0.995478 -0.00609801 0)
(0.892253 0.00216416 0)
(1.10512 -0.00492675 0)
(0.842274 -0.00422226 0)
(1.17532 0.00908781 0)
(0.913987 0.000514012 0)
(1.08034 0.00539557 0)
(0.925368 -0.00674309 0)
(1.08523 0.00540469 0)
(0.948269 -0.00662388 0)
(1.07749 0.00289856 0)
(0.960317 0.000774566 0)
(1.06053 0.00566416 0)
(0.980967 0.00225053 0)
(1.03444 0.00490074 0)
(0.98979 -0.00191446 0)
(1.01164 -0.00134525 0)
(0.988579 0.000967311 0)
(0.996395 -0.00614419 0)
(0.986803 0.00156304 0)
(0.986529 -0.00424872 0)
(0.915345 0.00214636 0)
(1.0794 -0.00451432 0)
(0.876226 -0.00484931 0)
(1.13694 0.00866519 0)
(0.949912 0.00120218 0)
(1.05337 0.00536286 0)
(0.955374 -0.00681542 0)
(1.05538 0.00516162 0)
(0.97845 -0.00652615 0)
(1.04575 0.00275375 0)
(0.988957 0.00101013 0)
(1.0315 0.00541462 0)
(1.00043 0.00262665 0)
(1.01401 0.004781 0)
(1.00026 -0.00145247 0)
(0.997682 -0.00135849 0)
(0.993041 0.0013674 0)
(0.990994 -0.00612836 0)
(0.986148 0.00191584 0)
(0.986125 -0.0033071 0)
(0.94009 0.00215617 0)
(1.05331 -0.00420158 0)
(0.912846 -0.00533393 0)
(1.09557 0.00813355 0)
(0.978748 0.00184867 0)
(1.02943 0.0053781 0)
(0.976896 -0.00682022 0)
(1.0303 0.00485381 0)
(0.995644 -0.00637186 0)
(1.02272 0.00259121 0)
(1.0006 0.00122463 0)
(1.01427 0.00525037 0)
(1.00343 0.00288842 0)
(1.0045 0.00475801 0)
(0.999797 -0.00101342 0)
(0.993018 -0.0012898 0)
(0.991657 0.00157946 0)
(0.989128 -0.00592645 0)
(0.984665 0.00211349 0)
(0.98382 -0.00263708 0)
(0.962402 0.00218658 0)
(1.03136 -0.00399603 0)
(0.945096 -0.00567028 0)
(1.05911 0.00763112 0)
(0.996209 0.00237595 0)
(1.01301 0.0054257 0)
(0.989316 -0.00679139 0)
(1.01389 0.00456983 0)
(1.00264 -0.00622124 0)
(1.00981 0.00248419 0)
(1.00245 0.00139231 0)
(1.00542 0.00518813 0)
(1.00075 0.00308468 0)
(0.999639 0.00475183 0)
(0.997998 -0.000624938 0)
(0.99154 -0.00125925 0)
(0.990861 0.00175216 0)
(0.989102 -0.00565551 0)
(0.98455 0.0021432 0)
(0.983373 -0.00182722 0)
(0.979561 0.00222301 0)
(1.01598 -0.00388164 0)
(0.969039 -0.00586789 0)
(1.03213 0.00723233 0)
(1.00338 0.00274921 0)
(1.00414 0.00548476 0)
(0.995499 -0.0067359 0)
(1.00526 0.0043276 0)
(1.00443 -0.0060886 0)
(1.00379 0.00242861 0)
(1.0014 0.00154403 0)
(1.00131 0.00516863 0)
(0.998167 0.00325156 0)
(0.997331 0.004695 0)
(0.997213 -0.000299678 0)
(0.991828 -0.00125038 0)
(0.991256 0.00187534 0)
(0.990507 -0.00537218 0)
(0.985708 0.00212096 0)
(0.984604 -0.000943794 0)
(0.990862 0.0022521 0)
(1.00703 -0.00382898 0)
(0.984269 -0.00595242 0)
(1.01501 0.00695536 0)
(1.00416 0.00298388 0)
(1.00038 0.005524 0)
(0.998456 -0.00666185 0)
(1.00164 0.00411281 0)
(1.00435 -0.00596044 0)
(1.00126 0.00238795 0)
(1.00048 0.00169337 0)
(0.99981 0.0051467 0)
(0.997107 0.00340329 0)
(0.996804 0.00458885 0)
(0.99748 -1.7515e-05 0)
(0.993044 -0.00126122 0)
(0.9925 0.0019469 0)
(0.992416 -0.00504615 0)
(0.98766 0.00207365 0)
(0.986539 -3.73662e-05 0)
(0.997232 0.0022679 0)
(1.00277 -0.00381211 0)
(0.992551 -0.00595809 0)
(1.00549 0.00678443 0)
(1.00244 0.00311564 0)
(0.999278 0.00551801 0)
(0.999973 -0.00657583 0)
(1.00056 0.00391389 0)
(1.0038 -0.00582189 0)
(1.00017 0.00233589 0)
(1.00012 0.001839 0)
(0.999632 0.00510653 0)
(0.997253 0.00354589 0)
(0.997352 0.00445417 0)
(0.99839 0.000232857 0)
(0.994565 -0.00127829 0)
(0.994065 0.00197271 0)
(0.994221 -0.00465521 0)
(0.989731 0.00197356 0)
(0.988519 0.000872997 0)
(1.00028 0.0022708 0)
(1.00121 -0.00381215 0)
(0.99622 -0.00591426 0)
(1.00072 0.00668381 0)
(1.00064 0.00318047 0)
(0.999334 0.00546343 0)
(1.00082 -0.00647917 0)
(1.00045 0.00372412 0)
(1.00316 -0.00566309 0)
(0.999539 0.00226264 0)
(1.00003 0.00197833 0)
(0.999948 0.00503995 0)
(0.997953 0.00368345 0)
(0.998352 0.00430047 0)
(0.999533 0.000461106 0)
(0.996048 -0.00128114 0)
(0.995536 0.00195539 0)
(0.99567 -0.00420576 0)
(0.991472 0.00183224 0)
(0.990177 0.00174903 0)
(1.00148 0.00226369 0)
(1.00098 -0.00381649 0)
(0.997235 -0.00583587 0)
(0.998468 0.00661492 0)
(0.999656 0.00320687 0)
(0.999863 0.00537367 0)
(1.00132 -0.00636856 0)
(1.00053 0.00353977 0)
(1.00251 -0.00547918 0)
(0.999009 0.00216705 0)
(0.999892 0.00211031 0)
(1.00029 0.00494215 0)
(0.998723 0.00381284 0)
(0.999381 0.00413578 0)
(1.00062 0.00067282 0)
(0.997328 -0.00125539 0)
(0.996713 0.00190642 0)
(0.996713 -0.00370732 0)
(0.992742 0.00168747 0)
(0.991381 0.0025436 0)
(1.00181 0.00224892 0)
(1.00129 -0.00381617 0)
(0.996934 -0.00573266 0)
(0.9974 0.00654756 0)
(0.99949 0.00320891 0)
(1.00056 0.00526423 0)
(1.00161 -0.00623883 0)
(1.00053 0.00335896 0)
(1.00186 -0.00526954 0)
(0.998483 0.00205167 0)
(0.999618 0.00223515 0)
(1.00045 0.00481438 0)
(0.999318 0.00392464 0)
(1.00022 0.00396997 0)
(1.00149 0.000866472 0)
(0.998345 -0.00118693 0)
(0.997554 0.00183264 0)
(0.997399 -0.00316446 0)
(0.993596 0.00155678 0)
(0.992173 0.00323371 0)
(1.0018 0.00222769 0)
(1.00179 -0.00380642 0)
(0.996141 -0.00560996 0)
(0.996827 0.00646321 0)
(0.999816 0.00319259 0)
(1.00123 0.00514625 0)
(1.0018 -0.00608626 0)
(1.00041 0.00318058 0)
(1.00125 -0.00503593 0)
(0.997974 0.00191986 0)
(0.999236 0.00235527 0)
(1.00042 0.00465887 0)
(0.999677 0.00401728 0)
(1.00079 0.00380573 0)
(1.0021 0.00103321 0)
(0.999097 -0.00107476 0)
(0.998103 0.0017491 0)
(0.997814 -0.00259445 0)
(0.994163 0.00146722 0)
(0.992675 0.00380938 0)
(1.00169 0.00220059 0)
(1.00226 -0.00378592 0)
(0.995315 -0.00547009 0)
(0.996457 0.00635416 0)
(1.00032 0.00316104 0)
(1.00179 0.00502578 0)
(1.00195 -0.00590986 0)
(1.00022 0.00300428 0)
(1.00072 -0.00478076 0)
(0.997526 0.00177522 0)
(0.998828 0.00247226 0)
(1.00027 0.00448138 0)
(0.999836 0.00408775 0)
(1.00113 0.00364791 0)
(1.00247 0.00116818 0)
(0.999622 -0.000920739 0)
(0.99844 0.00166018 0)
(0.998049 -0.00201977 0)
(0.994568 0.00143859 0)
(0.99302 0.00426593 0)
(1.00158 0.0021683 0)
(1.00262 -0.00375539 0)
(0.994671 -0.005315 0)
(0.996193 0.00622019 0)
(1.00078 0.00311682 0)
(1.00219 0.0049046 0)
(1.00207 -0.00571122 0)
(1.00003 0.00282915 0)
(1.0003 -0.00450707 0)
(0.997183 0.00162239 0)
(0.998467 0.00258545 0)
(1.00008 0.00428898 0)
(0.999872 0.00413038 0)
(1.0013 0.0035063 0)
(1.00265 0.00127374 0)
(0.999973 -0.000728453 0)
(0.998639 0.00157158 0)
(0.99818 -0.00146164 0)
(0.994901 0.00147933 0)
(0.993308 0.00461206 0)
(1.0015 0.00213167 0)
(1.00285 -0.00371647 0)
(0.994265 -0.00514733 0)
(0.996015 0.00606541 0)
(1.00113 0.00306229 0)
(1.00243 0.00478267 0)
(1.00217 -0.00549319 0)
(0.999887 0.0026545 0)
(0.999988 -0.00421804 0)
(0.996963 0.0014648 0)
(0.998194 0.00269291 0)
(0.999918 0.00408997 0)
(0.999848 0.00414387 0)
(1.00135 0.00338462 0)
(1.00271 0.00135092 0)
(1.0002 -0.000511601 0)
(0.998757 0.00150221 0)
(0.998259 -0.000933509 0)
(0.995209 0.00158514 0)
(0.993595 0.0048658 0)
(1.00144 0.00209161 0)
(1.00296 -0.00367109 0)
(0.994071 -0.00496933 0)
(0.995917 0.00589497 0)
(1.00135 0.00299986 0)
(1.00254 0.00465919 0)
(1.00224 -0.0052601 0)
(0.999794 0.00248118 0)
(0.99977 -0.00391718 0)
(0.996865 0.00130549 0)
(0.99802 0.00279279 0)
(0.999804 0.00389264 0)
(0.999803 0.00412923 0)
(1.00134 0.00328379 0)
(1.00269 0.00140384 0)
(1.00034 -0.000282769 0)
(0.998827 0.00146803 0)
(0.998316 -0.000442117 0)
(0.995513 0.00174308 0)
(0.993902 0.00504732 0)
(1.0014 0.00204879 0)
(1.00299 -0.00362078 0)
(0.994032 -0.00478357 0)
(0.995892 0.00571362 0)
(1.00147 0.00293125 0)
(1.00253 0.00453359 0)
(1.00228 -0.00501616 0)
(0.999746 0.00230838 0)
(0.999627 -0.00360722 0)
(0.996869 0.00114743 0)
(0.997933 0.00288285 0)
(0.999736 0.00370252 0)
(0.999754 0.00409055 0)
(1.00128 0.00320219 0)
(1.00262 0.00143973 0)
(1.00042 -5.18687e-05 0)
(0.99887 0.00146851 0)
(0.998365 1.18965e-05 0)
(0.995816 0.00193922 0)
(0.994231 0.00517908 0)
(1.00136 0.00200383 0)
(1.00297 -0.00356674 0)
(0.994096 -0.00459183 0)
(0.995926 0.00552579 0)
(1.00153 0.00285724 0)
(1.00245 0.00440682 0)
(1.00228 -0.0047654 0)
(0.999731 0.00213536 0)
(0.999536 -0.00329178 0)
(0.996948 0.000992795 0)
(0.997912 0.0029611 0)
(0.999705 0.00352356 0)
(0.999708 0.00402986 0)
(1.00118 0.00313864 0)
(1.00252 0.00146912 0)
(1.00046 0.00018002 0)
(0.998899 0.00150551 0)
(0.998415 0.000423641 0)
(0.996119 0.00215237 0)
(0.994576 0.00527595 0)
(1.00133 0.00195695 0)
(1.00291 -0.00350933 0)
(0.994219 -0.00439636 0)
(0.996004 0.00533477 0)
(1.00155 0.00277842 0)
(1.00233 0.00428008 0)
(1.00227 -0.0045123 0)
(0.999736 0.0019645 0)
(0.999477 -0.0029759 0)
(0.997077 0.000845171 0)
(0.997939 0.00302656 0)
(0.999699 0.00335807 0)
(0.999669 0.00394958 0)
(1.00107 0.00309108 0)
(1.0024 0.00149672 0)
(1.00047 0.000410247 0)
(0.998922 0.00157568 0)
(0.998467 0.00079564 0)
(0.99642 0.00237056 0)
(0.994931 0.00535367 0)
(1.0013 0.0019083 0)
(1.00283 -0.00344882 0)
(0.994375 -0.00419946 0)
(0.996112 0.00514255 0)
(1.00155 0.00269495 0)
(1.00217 0.00415472 0)
(1.00223 -0.00425898 0)
(0.999754 0.00179667 0)
(0.999435 -0.00266095 0)
(0.997234 0.000705013 0)
(0.997995 0.00308131 0)
(0.999707 0.00320706 0)
(0.999641 0.00385584 0)
(1.00096 0.00305483 0)
(1.00227 0.00152082 0)
(1.00048 0.00063067 0)
(0.998945 0.0016689 0)
(0.998526 0.00114185 0)
(0.996718 0.00259142 0)
(0.99529 0.00542538 0)
(1.00127 0.00185809 0)
(1.00274 -0.00338498 0)
(0.994547 -0.00400354 0)
(0.996236 0.00495145 0)
(1.00155 0.00260592 0)
(1.00201 0.00403275 0)
(1.00219 -0.00400828 0)
(0.99978 0.0016307 0)
(0.9994 -0.002347 0)
(0.997405 0.000572048 0)
(0.998068 0.0031233 0)
(0.999722 0.0030707 0)
(0.999621 0.00375218 0)
(1.00084 0.00303136 0)
(1.00215 0.00155009 0)
(1.00049 0.000843028 0)
(0.998973 0.00178391 0)
(0.998593 0.00146192 0)
(0.997014 0.00280541 0)
(0.995647 0.00549508 0)
(1.00124 0.001806 0)
(1.00265 -0.0033173 0)
(0.994726 -0.00380904 0)
(0.996368 0.00476378 0)
(1.00154 0.00251051 0)
(1.00184 0.00391573 0)
(1.00213 -0.00376092 0)
(0.999812 0.00146755 0)
(0.999367 -0.00203729 0)
(0.99758 0.000447883 0)
(0.998152 0.00315277 0)
(0.999739 0.00294557 0)
(0.999611 0.00364016 0)
(1.00073 0.00301731 0)
(1.00204 0.00158079 0)
(1.0005 0.00105054 0)
(0.999009 0.0019205 0)
(0.998669 0.00174768 0)
(0.997307 0.00299682 0)
(0.996001 0.00555877 0)
(1.00121 0.00175207 0)
(1.00256 -0.00324548 0)
(0.99491 -0.00361743 0)
(0.996505 0.00458081 0)
(1.00153 0.00240786 0)
(1.00168 0.00380388 0)
(1.00208 -0.0035152 0)
(0.999849 0.00130735 0)
(0.999334 -0.00173228 0)
(0.997755 0.000330826 0)
(0.998242 0.00317096 0)
(0.999755 0.00283382 0)
(0.999608 0.00351472 0)
(1.00062 0.00301908 0)
(1.00193 0.00161337 0)
(1.00053 0.00124749 0)
(0.999051 0.00207888 0)
(0.99875 0.00200921 0)
(0.997599 0.00316309 0)
(0.996353 0.00561299 0)
(1.00117 0.00169618 0)
(1.00247 -0.00316858 0)
(0.995096 -0.00343211 0)
(0.996642 0.00440399 0)
(1.00153 0.00229681 0)
(1.00152 0.00369794 0)
(1.00202 -0.00327258 0)
(0.999891 0.00114806 0)
(0.9993 -0.00142853 0)
(0.997929 0.00021836 0)
(0.998335 0.00317983 0)
(0.999766 0.00273958 0)
(0.999613 0.00337613 0)
(1.00052 0.0030372 0)
(1.00183 0.00165998 0)
(1.00056 0.00142405 0)
(0.999101 0.00225962 0)
(0.998835 0.00226386 0)
(0.99789 0.00330646 0)
(0.996705 0.00564565 0)
(1.00114 0.00163811 0)
(1.00238 -0.00308591 0)
(0.995285 -0.00325452 0)
(0.996779 0.00423586 0)
(1.00152 0.00217758 0)
(1.00136 0.00359596 0)
(1.00195 -0.00303127 0)
(0.999939 0.000990464 0)
(0.999265 -0.00112831 0)
(0.9981 0.00010948 0)
(0.998433 0.00317983 0)
(0.999772 0.00266618 0)
(0.999625 0.00322764 0)
(1.00042 0.00306585 0)
(1.00174 0.0017229 0)
(1.0006 0.00157464 0)
(0.999162 0.00245291 0)
(0.99892 0.00251653 0)
(0.998176 0.00342747 0)
(0.997062 0.00563695 0)
(1.0011 0.00157768 0)
(1.00229 -0.00299638 0)
(0.995475 -0.00308701 0)
(0.996916 0.00407871 0)
(1.00151 0.00204932 0)
(1.0012 0.00349849 0)
(1.00188 -0.00279001 0)
(0.999993 0.000830623 0)
(0.99923 -0.000831994 0)
(0.998267 1.0639e-05 0)
(0.998537 0.00316 0)
(0.999771 0.00261726 0)
(0.999645 0.00306663 0)
(1.00033 0.00310413 0)
(1.00165 0.00180947 0)
(1.00066 0.00169715 0)
(0.999236 0.0026381 0)
(0.999003 0.00276872 0)
(0.998452 0.00353879 0)
(0.997427 0.0055862 0)
(1.00107 0.00151462 0)
(1.0022 -0.00290012 0)
(0.995668 -0.00292899 0)
(0.997052 0.00393263 0)
(1.0015 0.00191456 0)
(1.00105 0.00340322 0)
(1.0018 -0.00254777 0)
(1.00005 0.000665819 0)
(0.999195 -0.000537629 0)
(0.998431 -6.99705e-05 0)
(0.998647 0.00311386 0)
(0.999762 0.0025991 0)
(0.999672 0.00289234 0)
(1.00026 0.00313917 0)
(1.00156 0.00192698 0)
(1.00072 0.00180318 0)
(0.999326 0.00280083 0)
(0.999085 0.00302245 0)
(0.998712 0.00365602 0)
(0.997798 0.00550576 0)
(1.00103 0.00144934 0)
(1.00211 -0.00279615 0)
(0.995863 -0.00278338 0)
(0.997187 0.00379846 0)
(1.0015 0.0017759 0)
(1.0009 0.00330526 0)
(1.00172 -0.00229802 0)
(1.00012 0.000495363 0)
(0.999162 -0.000252161 0)
(0.998587 -0.000129579 0)
(0.998767 0.00303566 0)
(0.999747 0.00262079 0)
(0.999704 0.00272046 0)
(1.00021 0.00316276 0)
(1.00147 0.00207964 0)
(1.0008 0.00190727 0)
(0.999436 0.00293208 0)
(0.99917 0.00326794 0)
(0.998954 0.00378973 0)
(0.998168 0.00541817 0)
(1.00099 0.00138116 0)
(1.00202 -0.00268318 0)
(0.996059 -0.00265252 0)
(0.99732 0.00367561 0)
(1.00149 0.00163593 0)
(1.00076 0.00320549 0)
(1.00163 -0.00203739 0)
(1.0002 0.000312657 0)
(0.999133 2.63463e-05 0)
(0.998736 -0.000164397 0)
(0.998898 0.0029163 0)
(0.999726 0.00267981 0)
(0.999739 0.0025661 0)
(1.00017 0.00316311 0)
(1.00139 0.00226027 0)
(1.00087 0.00201772 0)
(0.999564 0.00303073 0)
(0.999262 0.00348825 0)
(0.999175 0.00393389 0)
(0.998528 0.00534282 0)
(1.00095 0.00131018 0)
(1.00193 -0.0025622 0)
(0.996257 -0.00253459 0)
(0.99745 0.00356211 0)
(1.00149 0.00149639 0)
(1.00063 0.0030963 0)
(1.00152 -0.00176309 0)
(1.00028 0.000124397 0)
(0.999108 0.000291349 0)
(0.998872 -0.000166846 0)
(0.999043 0.0027547 0)
(0.999703 0.00276162 0)
(0.999771 0.00244166 0)
(1.00016 0.00313057 0)
(1.00132 0.00245316 0)
(1.00094 0.00214165 0)
(0.999709 0.00310369 0)
(0.999367 0.00367759 0)
(0.999378 0.00407805 0)
(0.998871 0.0052881 0)
(1.00091 0.00123713 0)
(1.00184 -0.00243289 0)
(0.996456 -0.00243107 0)
(0.997578 0.00345449 0)
(1.00149 0.00136175 0)
(1.0005 0.00297312 0)
(1.00141 -0.00147327 0)
(1.00036 -5.75256e-05 0)
(0.999091 0.00052859 0)
(0.998993 -0.000124462 0)
(0.999202 0.00255778 0)
(0.999684 0.00284862 0)
(0.999798 0.00236542 0)
(1.00018 0.0030669 0)
(1.00126 0.00264037 0)
(1.00101 0.00228398 0)
(0.999867 0.00315534 0)
(0.999486 0.00383534 0)
(0.999569 0.00421766 0)
(0.999195 0.00524551 0)
(1.00087 0.00116172 0)
(1.00175 -0.00229571 0)
(0.996655 -0.00233831 0)
(0.997704 0.00334864 0)
(1.00148 0.00123854 0)
(1.00039 0.00283627 0)
(1.00129 -0.00117078 0)
(1.00045 -0.000234781 0)
(0.999085 0.000730172 0)
(0.999095 -2.78513e-05 0)
(0.999373 0.00234205 0)
(0.999676 0.00292792 0)
(0.999816 0.00234697 0)
(1.00021 0.00298264 0)
(1.00121 0.00280789 0)
(1.00107 0.00244875 0)
(1.00004 0.00318956 0)
(0.999623 0.00395437 0)
(0.999749 0.00435725 0)
(0.9995 0.00521141 0)
(1.00083 0.00108411 0)
(1.00165 -0.0021526 0)
(0.996853 -0.00225192 0)
(0.997827 0.00324275 0)
(1.00147 0.00113398 0)
(1.00029 0.00267732 0)
(1.00115 -0.000857059 0)
(1.00053 -0.000400909 0)
(0.999094 0.000882345 0)
(0.999179 0.000116104 0)
(0.999552 0.00212271 0)
(0.999683 0.00298272 0)
(0.999824 0.00238623 0)
(1.00026 0.00289531 0)
(1.00119 0.00294286 0)
(1.00112 0.00263358 0)
(1.00021 0.00321909 0)
(0.999782 0.00402295 0)
(0.999923 0.00448971 0)
(0.999783 0.00519391 0)
(1.00079 0.00100536 0)
(1.00156 -0.00200471 0)
(0.99705 -0.00217252 0)
(0.997948 0.00312753 0)
(1.00146 0.00105242 0)
(1.0002 0.00249555 0)
(1.00101 -0.000541194 0)
(1.00062 -0.000540566 0)
(0.99912 0.000978509 0)
(0.999245 0.000297422 0)
(0.999734 0.00191603 0)
(0.999711 0.00300023 0)
(0.999823 0.00247066 0)
(1.00032 0.00281847 0)
(1.00119 0.00303349 0)
(1.00116 0.00282579 0)
(1.00037 0.00326437 0)
(0.999962 0.00404546 0)
(1.0001 0.00459394 0)
(1.00004 0.00520151 0)
(1.00075 0.000926255 0)
(1.00146 -0.00185465 0)
(0.997244 -0.00209456 0)
(0.998067 0.00299407 0)
(1.00144 0.000998761 0)
(1.00012 0.0022956 0)
(1.00086 -0.000231455 0)
(1.00069 -0.000642461 0)
(0.999165 0.00101659 0)
(0.999296 0.000504283 0)
(0.999912 0.00174093 0)
(0.999764 0.00297904 0)
(0.999818 0.0025816 0)
(1.00039 0.00276492 0)
(1.00122 0.00308299 0)
(1.00121 0.00301013 0)
(1.00053 0.00333583 0)
(1.00016 0.00403855 0)
(1.00029 0.00465058 0)
(1.00028 0.0052283 0)
(1.00071 0.000846807 0)
(1.00136 -0.00170393 0)
(0.997433 -0.00201171 0)
(0.998185 0.0028358 0)
(1.00142 0.000979102 0)
(1.00006 0.00208685 0)
(1.00071 5.91014e-05 0)
(1.00075 -0.000692004 0)
(0.99923 0.00100673 0)
(0.999337 0.000719899 0)
(1.00008 0.00161305 0)
(0.999841 0.00292718 0)
(0.999812 0.00270169 0)
(1.00045 0.00273779 0)
(1.00127 0.00309978 0)
(1.00126 0.00317575 0)
(1.00067 0.00343371 0)
(1.00036 0.00402347 0)
(1.0005 0.00465433 0)
(1.00052 0.00524859 0)
(1.00067 0.000769226 0)
(1.00126 -0.00155816 0)
(0.997616 -0.00191852 0)
(0.998304 0.00265121 0)
(1.00139 0.00098918 0)
(1.00001 0.00187818 0)
(1.00056 0.000321653 0)
(1.00079 -0.000682254 0)
(0.999313 0.000967999 0)
(0.999373 0.000922847 0)
(1.00024 0.00153287 0)
(0.99994 0.00285652 0)
(0.999808 0.00282249 0)
(1.0005 0.00273553 0)
(1.00135 0.00308728 0)
(1.00134 0.00331085 0)
(1.0008 0.00355105 0)
(1.00055 0.00401905 0)
(1.00072 0.0046188 0)
(1.00075 0.00524127 0)
(1.00063 0.000694373 0)
(1.00116 -0.0014198 0)
(0.997789 -0.00181218 0)
(0.998422 0.00243814 0)
(1.00135 0.00102086 0)
(0.999967 0.0016791 0)
(1.00041 0.000547934 0)
(1.00082 -0.000618367 0)
(0.99941 0.000911405 0)
(0.999408 0.00110046 0)
(1.00038 0.00149064 0)
(1.00006 0.00277226 0)
(0.999811 0.00293474 0)
(1.00054 0.00275811 0)
(1.00144 0.00305186 0)
(1.00143 0.00340641 0)
(1.00092 0.0036799 0)
(1.00073 0.00403448 0)
(1.00095 0.00455747 0)
(1.00099 0.00519528 0)
(1.00059 0.000622807 0)
(1.00107 -0.00128918 0)
(0.997952 -0.00168849 0)
(0.998541 0.00219806 0)
(1.00131 0.00105839 0)
(0.999929 0.00150763 0)
(1.00027 0.000723397 0)
(1.00083 -0.000510214 0)
(0.999517 0.00085584 0)
(0.999445 0.00124945 0)
(1.00051 0.00147121 0)
(1.0002 0.00267947 0)
(0.999825 0.00303674 0)
(1.00056 0.00281012 0)
(1.00155 0.00300437 0)
(1.00155 0.00345391 0)
(1.00103 0.00380679 0)
(1.00088 0.00407817 0)
(1.00118 0.00448441 0)
(1.00125 0.00510891 0)
(1.00055 0.000555966 0)
(1.00097 -0.00117011 0)
(0.998103 -0.00154699 0)
(0.998659 0.00194635 0)
(1.00127 0.00108711 0)
(0.999894 0.00137942 0)
(1.00014 0.000852751 0)
(1.00082 -0.000377517 0)
(0.999628 0.000821975 0)
(0.999482 0.00137864 0)
(1.00063 0.00146793 0)
(1.00035 0.00257719 0)
(0.999854 0.00312143 0)
(1.00057 0.00288985 0)
(1.00165 0.00296045 0)
(1.0017 0.00345429 0)
(1.00116 0.00391063 0)
(1.00102 0.00415389 0)
(1.00138 0.00442365 0)
(1.00152 0.00498806 0)
(1.00051 0.000495618 0)
(1.00088 -0.00106438 0)
(0.99824 -0.00139036 0)
(0.998773 0.00169175 0)
(1.00124 0.00109126 0)
(0.999861 0.00130198 0)
(1 0.00094762 0)
(1.0008 -0.000234284 0)
(0.999742 0.000812646 0)
(0.999521 0.00149582 0)
(1.00072 0.00148092 0)
(1.00051 0.00246356 0)
(0.999902 0.00318368 0)
(1.00056 0.00299544 0)
(1.00174 0.00293412 0)
(1.00186 0.00341432 0)
(1.00131 0.00397069 0)
(1.00113 0.00424582 0)
(1.00156 0.00439548 0)
(1.00179 0.0048419 0)
(1.00047 0.000441652 0)
(1.00079 -0.000973838 0)
(0.998362 -0.00122195 0)
(0.998882 0.00144687 0)
(1.0012 0.00105722 0)
(0.999829 0.00126782 0)
(0.999878 0.00102206 0)
(1.00077 -9.78539e-05 0)
(0.999855 0.000819974 0)
(0.999559 0.00160724 0)
(1.0008 0.00151069 0)
(1.00069 0.00233558 0)
(0.999976 0.00321635 0)
(1.00053 0.00312469 0)
(1.0018 0.00293832 0)
(1.00205 0.00334571 0)
(1.00148 0.0039782 0)
(1.00124 0.00432748 0)
(1.0017 0.00440922 0)
(1.00204 0.00469314 0)
(1.00043 0.000395406 0)
(1.0007 -0.000898554 0)
(0.998471 -0.00104912 0)
(0.998982 0.00122538 0)
(1.00118 0.000982517 0)
(0.9998 0.00126242 0)
(0.999752 0.001097 0)
(1.00072 2.01338e-05 0)
(0.99997 0.000832232 0)
(0.999598 0.00172171 0)
(1.00085 0.00156712 0)
(1.00087 0.00219798 0)
(1.00008 0.00320135 0)
(1.00051 0.00325763 0)
(1.00184 0.00298078 0)
(1.00223 0.00327127 0)
(1.00169 0.0039392 0)
(1.00135 0.00437674 0)
(1.00179 0.00445581 0)
(1.00226 0.00457781 0)
(1.0004 0.00035804 0)
(1.00062 -0.000841115 0)
(0.998568 -0.000872995 0)
(0.999069 0.0010387 0)
(1.00117 0.00086345 0)
(0.999779 0.00126803 0)
(0.999623 0.00119176 0)
(1.00067 0.000123945 0)
(1.00009 0.000840155 0)
(0.999639 0.00183463 0)
(1.00087 0.00165357 0)
(1.00104 0.00206672 0)
(1.00022 0.00313326 0)
(1.00049 0.0033733 0)
(1.00184 0.00305936 0)
(1.00239 0.00321011 0)
(1.00191 0.00386151 0)
(1.00149 0.00438139 0)
(1.00186 0.00450596 0)
(1.00241 0.00452617 0)
(1.00036 0.000329262 0)
(1.00055 -0.000801615 0)
(0.998655 -0.000698116 0)
(0.99914 0.000895373 0)
(1.00116 0.000715778 0)
(0.999773 0.00126261 0)
(0.999493 0.0013186 0)
(1.0006 0.000224629 0)
(1.00021 0.000824948 0)
(0.999688 0.00193409 0)
(1.00085 0.0017796 0)
(1.00119 0.00196515 0)
(1.00039 0.00301248 0)
(1.00049 0.00345248 0)
(1.00182 0.00316339 0)
(1.00253 0.00317456 0)
(1.00215 0.00375584 0)
(1.00166 0.00433912 0)
(1.00193 0.00452339 0)
(1.0025 0.00452807 0)
(1.00032 0.000307952 0)
(1.00049 -0.000773914 0)
(0.998736 -0.000532897 0)
(0.999193 0.000792564 0)
(1.00116 0.000554878 0)
(0.999788 0.00123055 0)
(0.999364 0.00146984 0)
(1.00051 0.000343344 0)
(1.00034 0.000785294 0)
(0.999754 0.00200111 0)
(1.00082 0.00193481 0)
(1.00131 0.00191067 0)
(1.00059 0.00285378 0)
(1.00052 0.00347915 0)
(1.00177 0.00327562 0)
(1.00263 0.00317341 0)
(1.00239 0.00364347 0)
(1.00185 0.00426246 0)
(1.00201 0.00449727 0)
(1.00255 0.00453732 0)
(1.00028 0.000294745 0)
(1.00044 -0.000759066 0)
(0.998814 -0.000381411 0)
(0.999226 0.00073434 0)
(1.00116 0.000393097 0)
(0.999828 0.00115586 0)
(0.999242 0.00162773 0)
(1.00039 0.000494536 0)
(1.00046 0.000738056 0)
(0.999844 0.00202573 0)
(1.00077 0.00209867 0)
(1.00139 0.00191264 0)
(1.00079 0.00268835 0)
(1.00059 0.00344361 0)
(1.00172 0.00337157 0)
(1.00269 0.00320141 0)
(1.00262 0.00353744 0)
(1.00207 0.00416145 0)
(1.00211 0.00444224 0)
(1.00258 0.00451155 0)
(1.00025 0.000286505 0)
(1.00039 -0.000748503 0)
(0.998894 -0.000256058 0)
(0.99924 0.000722495 0)
(1.00116 0.000248121 0)
(0.999898 0.00103232 0)
(0.999139 0.00177137 0)
(1.00025 0.000695484 0)
(1.00057 0.000700011 0)
(0.999962 0.00199674 0)
(1.00071 0.00225255 0)
(1.00142 0.00197498 0)
(1.00099 0.00254898 0)
(1.0007 0.00335641 0)
(1.00168 0.00343281 0)
(1.00271 0.00324711 0)
(1.00281 0.00344126 0)
(1.00229 0.00403018 0)
(1.00223 0.00436874 0)
(1.00263 0.00444181 0)
(1.00021 0.000282173 0)
(1.00036 -0.000736623 0)
(0.998979 -0.000158924 0)
(0.999239 0.000742236 0)
(1.00115 0.000132524 0)
(0.999995 0.000869307 0)
(0.999066 0.00187366 0)
(1.00008 0.000939413 0)
(1.00065 0.000695355 0)
(1.00011 0.00191781 0)
(1.00067 0.00237337 0)
(1.00141 0.00208018 0)
(1.00117 0.00244605 0)
(1.00084 0.00324029 0)
(1.00166 0.00345417 0)
(1.0027 0.00330486 0)
(1.00297 0.00337534 0)
(1.00253 0.00387492 0)
(1.00236 0.00427658 0)
(1.00268 0.00435116 0)
(1.00018 0.000279607 0)
(1.00033 -0.000718487 0)
(0.999071 -9.15816e-05 0)
(0.999226 0.00078367 0)
(1.00112 6.22023e-05 0)
(1.00012 0.000681069 0)
(0.999034 0.00192301 0)
(0.999902 0.00120387 0)
(1.00069 0.000734568 0)
(1.00027 0.00180943 0)
(1.00066 0.00244784 0)
(1.00137 0.00221398 0)
(1.00131 0.00238888 0)
(1.001 0.003112 0)
(1.00168 0.00343255 0)
(1.00268 0.00334996 0)
(1.00308 0.00334442 0)
(1.00275 0.00371138 0)
(1.00251 0.00414709 0)
(1.00274 0.00425353 0)
(1.00016 0.00027555 0)
(1.0003 -0.000689169 0)
(0.999172 -5.8226e-05 0)
(0.999208 0.000839586 0)
(1.00107 4.27652e-05 0)
(1.00026 0.000489904 0)
(0.999052 0.00190274 0)
(0.999716 0.00147534 0)
(1.0007 0.00083128 0)
(1.00044 0.0016926 0)
(1.00068 0.00246287 0)
(1.00131 0.00234798 0)
(1.00141 0.00238715 0)
(1.00117 0.00298872 0)
(1.00172 0.00337663 0)
(1.00265 0.00336735 0)
(1.00315 0.00333716 0)
(1.00295 0.00357247 0)
(1.00268 0.00397832 0)
(1.0028 0.00414542 0)
(1.00013 0.000269344 0)
(1.00028 -0.000646658 0)
(0.999283 -5.42443e-05 0)
(0.999191 0.000894699 0)
(1.001 7.83588e-05 0)
(1.0004 0.000310395 0)
(0.999125 0.00180546 0)
(0.999545 0.00171821 0)
(1.00065 0.000995336 0)
(1.0006 0.00159612 0)
(1.00074 0.00242666 0)
(1.00126 0.00245566 0)
(1.00147 0.00242143 0)
(1.00132 0.00288794 0)
(1.00179 0.00329783 0)
(1.00263 0.00335893 0)
(1.00318 0.00333132 0)
(1.0031 0.00347434 0)
(1.00286 0.00379236 0)
(1.00288 0.00400683 0)
(1.00011 0.00025895 0)
(1.00026 -0.000586898 0)
(0.9994 -7.16282e-05 0)
(0.999182 0.000935213 0)
(1.00091 0.000162003 0)
(1.00054 0.000158336 0)
(0.999252 0.00165322 0)
(0.999408 0.00190577 0)
(1.00057 0.00120098 0)
(1.00074 0.00153774 0)
(1.00084 0.00234804 0)
(1.00122 0.00253713 0)
(1.00149 0.00247213 0)
(1.00145 0.00281144 0)
(1.00187 0.00320646 0)
(1.00263 0.00332726 0)
(1.00319 0.00331437 0)
(1.00321 0.00340347 0)
(1.00301 0.00362535 0)
(1.00297 0.00383415 0)
(1.0001 0.00024357 0)
(1.00024 -0.000513395 0)
(0.999523 -0.000100196 0)
(0.999186 0.000955445 0)
(1.0008 0.00027829 0)
(1.00066 5.6286e-05 0)
(0.999427 0.00145985 0)
(0.999319 0.00202639 0)
(1.00045 0.0014219 0)
(1.00084 0.00153392 0)
(1.00096 0.00224253 0)
(1.0012 0.00257019 0)
(1.0015 0.00253974 0)
(1.00156 0.00275751 0)
(1.00196 0.00310883 0)
(1.00265 0.00327348 0)
(1.0032 0.00328573 0)
(1.00328 0.00334087 0)
(1.00314 0.00349155 0)
(1.00306 0.00365187 0)
(1.00008 0.000223872 0)
(1.00021 -0.00042907 0)
(0.999647 -0.000132593 0)
(0.999208 0.000946283 0)
(1.00068 0.000413127 0)
(1.00074 1.84576e-05 0)
(0.999636 0.00124932 0)
(0.999288 0.00206418 0)
(1.00033 0.00163642 0)
(1.0009 0.00158335 0)
(1.00108 0.00215682 0)
(1.00123 0.00254811 0)
(1.00149 0.00259481 0)
(1.00163 0.00273644 0)
(1.00206 0.00301202 0)
(1.00268 0.0031984 0)
(1.00321 0.00324206 0)
(1.00333 0.00327709 0)
(1.00322 0.00337831 0)
(1.00313 0.00348769 0)
(1.00007 0.000199813 0)
(1.00019 -0.000337036 0)
(0.999768 -0.000158687 0)
(0.999251 0.000906105 0)
(1.00055 0.000553209 0)
(1.0008 4.1752e-05 0)
(0.999862 0.00104547 0)
(0.999318 0.00201935 0)
(1.00021 0.00182032 0)
(1.00092 0.00166 0)
(1.00119 0.00209223 0)
(1.00127 0.00251252 0)
(1.00149 0.00261176 0)
(1.00168 0.0027272 0)
(1.00213 0.00293172 0)
(1.00272 0.00310552 0)
(1.00322 0.00318192 0)
(1.00335 0.00321115 0)
(1.00328 0.00327317 0)
(1.00317 0.00334814 0)
(1.00007 0.000173497 0)
(1.00015 -0.000245699 0)
(0.99988 -0.000169448 0)
(0.999315 0.000840547 0)
(1.00043 0.00067567 0)
(1.00081 0.000120734 0)
(1.00008 0.000869373 0)
(0.999409 0.00191609 0)
(1.00012 0.00195362 0)
(1.0009 0.00176244 0)
(1.00129 0.00203294 0)
(1.00133 0.00246565 0)
(1.00149 0.00262119 0)
(1.00171 0.00270436 0)
(1.00219 0.00286092 0)
(1.00277 0.00300329 0)
(1.00323 0.00309701 0)
(1.00336 0.00314117 0)
(1.00331 0.00317122 0)
(1.00319 0.00322197 0)
(1.00007 0.000146785 0)
(1.00012 -0.000158071 0)
(0.999979 -0.0001652 0)
(0.999395 0.000762067 0)
(1.00033 0.000769378 0)
(1.0008 0.000238721 0)
(1.00029 0.000740377 0)
(0.999547 0.00178002 0)
(1.00006 0.00201812 0)
(1.00085 0.00186925 0)
(1.00137 0.00200715 0)
(1.00142 0.00238501 0)
(1.00151 0.0026215 0)
(1.00172 0.00268866 0)
(1.00223 0.00278495 0)
(1.00281 0.00289973 0)
(1.00326 0.00298957 0)
(1.00337 0.00305875 0)
(1.00332 0.00307899 0)
(1.0032 0.00309968 0)
(1.00007 0.000120675 0)
(1.00008 -7.92197e-05 0)
(1.00006 -0.000143409 0)
(0.999488 0.000684178 0)
(1.00025 0.000834786 0)
(1.00076 0.000371041 0)
(1.00047 0.000667537 0)
(0.999718 0.00162601 0)
(1.00004 0.00202431 0)
(1.00079 0.00194165 0)
(1.0014 0.00201138 0)
(1.0015 0.00230581 0)
(1.00154 0.0025779 0)
(1.00171 0.00268561 0)
(1.00223 0.00272105 0)
(1.00283 0.00278766 0)
(1.00329 0.00286727 0)
(1.00339 0.00294831 0)
(1.00332 0.0029908 0)
(1.00319 0.00298285 0)
(1.00007 9.79031e-05 0)
(1.00005 -1.32379e-05 0)
(1.00013 -0.000104247 0)
(0.999587 0.000608619 0)
(1.0002 0.000870149 0)
(1.0007 0.000502712 0)
(1.00061 0.000651121 0)
(0.999907 0.00147798 0)
(1.00007 0.00199111 0)
(1.00074 0.0019883 0)
(1.00142 0.00200671 0)
(1.00158 0.00224739 0)
(1.0016 0.00251023 0)
(1.00171 0.00265693 0)
(1.00221 0.00268329 0)
(1.00283 0.00268215 0)
(1.00332 0.00273537 0)
(1.00342 0.00281788 0)
(1.00332 0.00289089 0)
(1.00316 0.0028809 0)
(1.00007 7.76144e-05 0)
(1.00002 4.42403e-05 0)
(1.00018 -5.43061e-05 0)
(0.999687 0.000545363 0)
(1.00017 0.000880989 0)
(1.00064 0.000620964 0)
(1.00072 0.000669997 0)
(1.0001 0.00135291 0)
(1.00013 0.00191772 0)
(1.00069 0.00201721 0)
(1.00141 0.00200019 0)
(1.00164 0.00217894 0)
(1.00166 0.00244928 0)