/*--------------------------------*- C++ -*----------------------------------*\
| =========                 |                                                 |
| \\      /  F ield         | OpenFOAM: The Open Source CFD Toolbox           |
|  \\    /   O peration     | Version:  2106                                  |
|   \\  /    A nd           | Website:  www.openfoam.com                      |
|    \\/     M anipulation  |                                                 |
\*---------------------------------------------------------------------------*/
FoamFile
{
    version     2.0;
    format      ascii;
    arch        "LSB;label=32;scalar=64";
    class       volVectorField;
    location    "0.59";
    object      U;
}
// * * * * * * * * * * * * * * * * * * * * * * * * * * * * * * * * * * * * * //

dimensions      [0 1 -1 0 0 0 0];

internalField   nonuniform List<vector> 
9600
(
(0.865478 4.79486e-05 0)
(1.15929 0.00537581 0)
(0.861121 -0.0033627 0)
(1.08657 -0.00576996 0)
(0.899697 0.00878595 0)
(1.14076 -0.00303282 0)
(0.813498 0.00301834 0)
(1.149 0.00172091 0)
(0.816125 -0.00808877 0)
(1.11569 -0.000564697 0)
(0.866279 -0.00117463 0)
(1.12111 0.00233303 0)
(0.873501 -0.00589178 0)
(1.10488 0.000813337 0)
(0.86691 -0.00237439 0)
(1.10552 0.00557611 0)
(0.865625 0.00273503 0)
(1.10984 0.0047822 0)
(0.858686 0.000642977 0)
(1.11562 0.000776388 0)
(0.874667 -0.00022481 0)
(1.14772 0.00552617 0)
(0.877439 -0.00290839 0)
(1.07704 -0.00593702 0)
(0.9098 0.00807107 0)
(1.12423 -0.00189249 0)
(0.833315 0.00272517 0)
(1.12372 0.00202267 0)
(0.848235 -0.00786458 0)
(1.09123 -0.00113671 0)
(0.895871 -0.00155133 0)
(1.09233 0.00242684 0)
(0.913604 -0.00572852 0)
(1.06944 0.0011159 0)
(0.91797 -0.00245681 0)
(1.05392 0.00555757 0)
(0.93781 0.00278565 0)
(1.03193 0.00453627 0)
(0.961826 0.00111718 0)
(0.999815 0.000736182 0)
(0.892707 -0.000420425 0)
(1.12476 0.00567151 0)
(0.903691 -0.00250815 0)
(1.05937 -0.00608589 0)
(0.9292 0.00748845 0)
(1.09775 -0.000990738 0)
(0.869456 0.00250205 0)
(1.08482 0.00200672 0)
(0.895621 -0.00764833 0)
(1.05241 -0.00161114 0)
(0.935302 -0.00167071 0)
(1.05235 0.00222853 0)
(0.957786 -0.00533702 0)
(1.02753 0.00100288 0)
(0.962732 -0.00200125 0)
(1.00921 0.00497777 0)
(0.97749 0.00346243 0)
(0.995665 0.00373117 0)
(0.986542 0.00250137 0)
(0.984056 0.000827097 0)
(0.916591 -0.000566326 0)
(1.09455 0.00569152 0)
(0.933324 -0.00214188 0)
(1.03825 -0.00618495 0)
(0.952265 0.00709686 0)
(1.06794 -0.000369246 0)
(0.910479 0.00253822 0)
(1.04624 0.00179788 0)
(0.939552 -0.00733002 0)
(1.01749 -0.00203618 0)
(0.965184 -0.00171892 0)
(1.02158 0.00187665 0)
(0.983685 -0.00492023 0)
(1.00272 0.000891119 0)
(0.981321 -0.00159463 0)
(0.990597 0.00462398 0)
(0.98579 0.00372599 0)
(0.988826 0.00352402 0)
(0.987281 0.00289556 0)
(0.985839 0.00131945 0)
(0.941842 -0.00065882 0)
(1.06321 0.00563268 0)
(0.959974 -0.00179833 0)
(1.01949 -0.00626262 0)
(0.97297 0.00679182 0)
(1.0413 5.36308e-05 0)
(0.945493 0.00273507 0)
(1.01822 0.00152456 0)
(0.969229 -0.00700547 0)
(0.997028 -0.00232949 0)
(0.981081 -0.00180822 0)
(1.00555 0.00155881 0)
(0.993465 -0.0045695 0)
(0.993638 0.000889409 0)
(0.986572 -0.00123142 0)
(0.986103 0.00439579 0)
(0.986996 0.00389528 0)
(0.988994 0.0032883 0)
(0.988625 0.00327698 0)
(0.987492 0.0017145 0)
(0.964223 -0.000702647 0)
(1.03647 0.00554458 0)
(0.979711 -0.00152154 0)
(1.00675 -0.00632598 0)
(0.987919 0.00657127 0)
(1.02184 0.000337052 0)
(0.969631 0.00295626 0)
(1.00321 0.00129274 0)
(0.985097 -0.00674674 0)
(0.989748 -0.00248975 0)
(0.988177 -0.00191299 0)
(0.999253 0.001311 0)
(0.99571 -0.0042858 0)
(0.991527 0.000923075 0)
(0.988687 -0.000909013 0)
(0.986642 0.0042003 0)
(0.988811 0.00397621 0)
(0.991063 0.00307364 0)
(0.991287 0.00356336 0)
(0.989945 0.00214483 0)
(0.981092 -0.000710929 0)
(1.0175 0.00545715 0)
(0.991967 -0.00133208 0)
(1.00028 -0.00637063 0)
(0.996889 0.00642934 0)
(1.01002 0.000522763 0)
(0.983809 0.00313489 0)
(0.997787 0.00113822 0)
(0.992559 -0.00655327 0)
(0.989449 -0.00257278 0)
(0.991726 -0.00198881 0)
(0.997242 0.00112033 0)
(0.995482 -0.0040379 0)
(0.991301 0.000920197 0)
(0.990301 -0.000635476 0)
(0.98878 0.00397951 0)
(0.99132 0.0040162 0)
(0.993723 0.00287386 0)
(0.993929 0.00376346 0)
(0.9925 0.00264101 0)
(0.991861 -0.000702227 0)
(1.00637 0.00538745 0)
(0.998506 -0.00121947 0)
(0.998078 -0.00640031 0)
(1.00143 0.00634093 0)
(1.00399 0.000653223 0)
(0.991392 0.00325377 0)
(0.997343 0.00104366 0)
(0.996257 -0.00639596 0)
(0.991362 -0.00263063 0)
(0.994013 -0.0020183 0)
(0.996793 0.000984115 0)
(0.994754 -0.00379668 0)
(0.991333 0.000861407 0)
(0.991525 -0.000417056 0)
(0.990966 0.00372814 0)
(0.993628 0.00402048 0)
(0.995944 0.00272761 0)
(0.995903 0.00392126 0)
(0.994334 0.00318946 0)
(0.997524 -0.000690263 0)
(1.00109 0.00533597 0)
(1.0017 -0.00115811 0)
(0.997804 -0.00642053 0)
(1.00322 0.00628519 0)
(1.0015 0.000754456 0)
(0.995402 0.00331798 0)
(0.998747 0.000982561 0)
(0.998515 -0.00625015 0)
(0.993352 -0.00268068 0)
(0.995565 -0.00200501 0)
(0.996886 0.000894458 0)
(0.994243 -0.00354778 0)
(0.991403 0.00076 0)
(0.992323 -0.000249445 0)
(0.992526 0.00345513 0)
(0.995171 0.00399729 0)
(0.997246 0.00265981 0)
(0.99695 0.00403855 0)
(0.995259 0.00376073 0)
(0.999757 -0.000679744 0)
(0.999204 0.00529156 0)
(1.00333 -0.00112138 0)
(0.997978 -0.00642987 0)
(1.00335 0.0062455 0)
(1.00085 0.000832026 0)
(0.997592 0.00334133 0)
(1.00047 0.000936912 0)
(1.00012 -0.00610106 0)
(0.994804 -0.00271888 0)
(0.996475 -0.00196053 0)
(0.997143 0.000837344 0)
(0.994141 -0.0032919 0)
(0.991614 0.0006403 0)
(0.992815 -0.000122581 0)
(0.993372 0.00318455 0)
(0.995836 0.00395173 0)
(0.997635 0.00266444 0)
(0.997139 0.00411814 0)
(0.995424 0.00432779 0)
(1.00013 -0.000669972 0)
(0.998874 0.00524174 0)
(1.00436 -0.00109039 0)
(0.998059 -0.00642065 0)
(1.00245 0.00620595 0)
(1.00103 0.00088573 0)
(0.998771 0.00333778 0)
(1.00192 0.000896706 0)
(1.00128 -0.00594059 0)
(0.995668 -0.00273955 0)
(0.996854 -0.00189929 0)
(0.997404 0.000795324 0)
(0.994384 -0.00303444 0)
(0.99201 0.000522681 0)
(0.993153 -1.91316e-05 0)
(0.993696 0.00293864 0)
(0.995833 0.00388748 0)
(0.997372 0.00273114 0)
(0.99675 0.00417442 0)
(0.995102 0.0048588 0)
(0.999727 -0.000658931 0)
(0.999078 0.00517863 0)
(1.00511 -0.00105512 0)
(0.997997 -0.00638585 0)
(1.00105 0.00615521 0)
(1.00148 0.000914762 0)
(0.999346 0.00331745 0)
(1.00293 0.000857552 0)
(1.00209 -0.0057668 0)
(0.996077 -0.00273926 0)
(0.996882 -0.00183224 0)
(0.997603 0.000751991 0)
(0.994814 -0.00278322 0)
(0.992529 0.000422063 0)
(0.993439 7.41426e-05 0)
(0.993747 0.00273306 0)
(0.99548 0.00381155 0)
(0.996793 0.00284635 0)
(0.996111 0.00422363 0)
(0.994578 0.00532358 0)
(0.999148 -0.00064533 0)
(0.999379 0.00509965 0)
(1.00569 -0.00101196 0)
(0.997875 -0.00632253 0)
(0.999571 0.00608907 0)
(1.0019 0.000920619 0)
(0.999596 0.00328646 0)
(1.00355 0.000818132 0)
(1.00263 -0.00558175 0)
(0.996206 -0.00271608 0)
(0.996745 -0.00176791 0)
(0.997731 0.000699941 0)
(0.995285 -0.00254745 0)
(0.993075 0.00034736 0)
(0.993716 0.000162303 0)
(0.993721 0.00257701 0)
(0.99505 0.00373306 0)
(0.996176 0.00299315 0)
(0.995485 0.00428496 0)
(0.994074 0.00570641 0)
(0.998644 -0.000628953 0)
(0.999632 0.00500567 0)
(1.00611 -0.000960847 0)
(0.997762 -0.00623135 0)
(0.998306 0.00600829 0)
(1.00219 0.000906723 0)
(0.999716 0.00324728 0)
(1.00387 0.00077975 0)
(1.00296 -0.00538949 0)
(0.996207 -0.00266878 0)
(0.996578 -0.0017132 0)
(0.997804 0.000642367 0)
(0.995698 -0.00233288 0)
(0.993572 0.000299641 0)
(0.993985 0.000247081 0)
(0.993723 0.0024682 0)
(0.994697 0.00366302 0)
(0.995676 0.0031497 0)
(0.99501 0.00437116 0)
(0.99371 0.0060082 0)
(0.998285 -0.000610188 0)
(0.999804 0.00489894 0)
(1.00639 -0.000902879 0)
(0.997694 -0.0061158 0)
(0.997374 0.00591551 0)
(1.00234 0.000877534 0)
(0.999801 0.00319979 0)
(1.004 0.000745555 0)
(1.00316 -0.00519443 0)
(0.996177 -0.00259818 0)
(0.996451 -0.00167074 0)
(0.997839 0.000582315 0)
(0.996012 -0.00213818 0)
(0.993977 0.000274139 0)
(0.994229 0.000332013 0)
(0.993776 0.00239388 0)
(0.994466 0.00361089 0)
(0.995336 0.00329873 0)
(0.99472 0.00448407 0)
(0.993521 0.00624342 0)
(0.998064 -0.000589555 0)
(0.999902 0.00478202 0)
(1.00655 -0.000839654 0)
(0.997684 -0.00598049 0)
(0.996768 0.00581307 0)
(1.00237 0.000839317 0)
(0.999873 0.00314269 0)
(1.00401 0.000719415 0)
(1.00326 -0.00500186 0)
(0.996164 -0.0025048 0)
(0.99638 -0.00164177 0)
(0.997847 0.000524812 0)
(0.996224 -0.00196272 0)
(0.994285 0.000268495 0)
(0.994435 0.000416018 0)
(0.993869 0.00233964 0)
(0.994342 0.00358596 0)
(0.995139 0.00343799 0)
(0.994593 0.00461097 0)
(0.993486 0.00642686 0)
(0.997953 -0.000567594 0)
(0.999945 0.00465752 0)
(1.0066 -0.000773189 0)
(0.997729 -0.00582968 0)
(0.996423 0.00570285 0)
(1.00233 0.000795931 0)
(0.999925 0.00307493 0)
(1.00394 0.000703581 0)
(1.00329 -0.00481565 0)
(0.99618 -0.00238992 0)
(0.99636 -0.00162515 0)
(0.99784 0.000474288 0)
(0.996355 -0.00180657 0)
(0.99451 0.000279601 0)
(0.994601 0.000502204 0)
(0.993982 0.00229126 0)
(0.994295 0.00358878 0)
(0.995048 0.00356849 0)
(0.994588 0.00473139 0)
(0.993568 0.00657053 0)
(0.997921 -0.000544885 0)
(0.999954 0.00452788 0)
(1.00657 -0.000705469 0)
(0.997812 -0.00566682 0)
(0.996263 0.00558609 0)
(1.00227 0.000751712 0)
(0.999951 0.002996 0)
(1.00381 0.000699612 0)
(1.00329 -0.00463989 0)
(0.996222 -0.00225495 0)
(0.996381 -0.00161748 0)
(0.997827 0.000428932 0)
(0.99643 -0.00166019 0)
(0.994678 0.000297081 0)
(0.994735 0.000600403 0)
(0.99411 0.00223769 0)
(0.994305 0.00361263 0)
(0.995033 0.0036927 0)
(0.994671 0.00483176 0)
(0.993736 0.00668401 0)
(0.99794 -0.000521784 0)
(0.999946 0.00439479 0)
(1.00647 -0.000637671 0)
(0.997915 -0.00549484 0)
(0.996228 0.00546342 0)
(1.0022 0.000712371 0)
(0.999957 0.00290426 0)
(1.00364 0.000710612 0)
(1.00325 -0.00447808 0)
(0.996285 -0.00210338 0)
(0.996431 -0.00161678 0)
(0.997818 0.000388332 0)
(0.996475 -0.00151711 0)
(0.994814 0.000312162 0)
(0.994852 0.000716642 0)
(0.994252 0.00218311 0)
(0.994359 0.00364893 0)
(0.99507 0.00382273 0)
(0.994815 0.00490717 0)
(0.993962 0.00676604 0)
(0.997988 -0.000498742 0)
(0.999933 0.00425978 0)
(1.00633 -0.000570977 0)
(0.998025 -0.00531528 0)
(0.996266 0.00533428 0)
(1.00214 0.00068135 0)
(0.999952 0.00279833 0)
(1.00346 0.000737069 0)
(1.0032 -0.00433001 0)
(0.996359 -0.00193733 0)
(0.996502 -0.00162056 0)
(0.997819 0.000352933 0)
(0.996505 -0.00137295 0)
(0.994938 0.000313409 0)
(0.994963 0.000852099 0)
(0.994407 0.00213485 0)
(0.994451 0.00368137 0)
(0.995144 0.00396923 0)
(0.995 0.0049634 0)
(0.994226 0.00681213 0)
(0.998052 -0.000476251 0)
(0.999919 0.00412397 0)
(1.00618 -0.000506104 0)
(0.998137 -0.00512893 0)
(0.996345 0.00519828 0)
(1.00207 0.000659855 0)
(0.999944 0.00267924 0)
(1.00326 0.000779575 0)
(1.00314 -0.00419563 0)
(0.996439 -0.00176026 0)
(0.996584 -0.00162311 0)
(0.997832 0.000313132 0)
(0.99653 -0.00121666 0)
(0.99506 0.000295141 0)
(0.995077 0.0009981 0)
(0.994573 0.00210108 0)
(0.994576 0.00369218 0)
(0.995244 0.0041315 0)
(0.995208 0.00501485 0)
(0.994515 0.00682171 0)
(0.998123 -0.000454332 0)
(0.999907 0.0039875 0)
(1.00601 -0.000443543 0)
(0.998249 -0.00493595 0)
(0.996442 0.00505458 0)
(1.00201 0.00064956 0)
(0.999938 0.00254645 0)
(1.00306 0.00083816 0)
(1.00307 -0.0040759 0)
(0.996522 -0.00157365 0)
(0.996668 -0.00161794 0)
(0.997857 0.000262619 0)
(0.996554 -0.00104167 0)
(0.995187 0.000266121 0)
(0.995196 0.00114442 0)
(0.994746 0.00209527 0)
(0.994729 0.0036744 0)
(0.995363 0.00429467 0)
(0.995427 0.00506991 0)
(0.994818 0.00679019 0)
(0.998198 -0.000433486 0)
(0.999897 0.00385183 0)
(1.00584 -0.000385 0)
(0.998363 -0.00473543 0)
(0.996546 0.00490167 0)
(1.00195 0.00065323 0)
(0.999937 0.00239844 0)
(1.00286 0.000910942 0)
(1.00301 -0.00396538 0)
(0.996607 -0.00138667 0)
(0.996751 -0.00159736 0)
(0.997895 0.000196546 0)
(0.996579 -0.000844186 0)
(0.995318 0.000231824 0)
(0.995324 0.00128126 0)
(0.994922 0.00212823 0)
(0.994905 0.0036352 0)
(0.995499 0.00444091 0)
(0.995645 0.00513807 0)
(0.995129 0.00671999 0)
(0.998274 -0.000413887 0)
(0.999887 0.00371711 0)
(1.00567 -0.000330619 0)
(0.998477 -0.00452735 0)
(0.996652 0.00474029 0)
(1.00188 0.000669726 0)
(0.99994 0.00223711 0)
(1.00266 0.000997142 0)
(1.00294 -0.00385997 0)
(0.996695 -0.00120897 0)
(0.996827 -0.00155079 0)
(0.997945 0.000108763 0)
(0.996606 -0.00063061 0)
(0.995453 0.000197212 0)
(0.995464 0.00140014 0)
(0.995098 0.00220326 0)
(0.995098 0.00358793 0)
(0.995653 0.00455714 0)
(0.995861 0.00523108 0)
(0.995441 0.00662776 0)
(0.998351 -0.000395599 0)
(0.999879 0.00358359 0)
(1.00549 -0.000281587 0)
(0.998593 -0.00431094 0)
(0.996759 0.0045698 0)
(1.00181 0.000700018 0)
(0.999947 0.00206648 0)
(1.00247 0.00108754 0)
(1.00288 -0.0037563 0)
(0.996787 -0.00104141 0)
(0.996897 -0.00147241 0)
(0.998007 -2.79025e-06 0)
(0.996636 -0.000408101 0)
(0.995589 0.00017573 0)
(0.995618 0.00148788 0)
(0.995273 0.00231279 0)
(0.995304 0.00354585 0)
(0.995828 0.00463052 0)
(0.996072 0.00534394 0)
(0.995747 0.00653115 0)
(0.998428 -0.000378851 0)
(0.999872 0.0034526 0)
(1.00532 -0.000239559 0)
(0.99871 -0.00408485 0)
(0.996867 0.00438918 0)
(1.00174 0.000743805 0)
(0.999958 0.00188653 0)
(1.00227 0.0011867 0)
(1.00282 -0.0036486 0)
(0.996884 -0.000896264 0)
(0.996958 -0.00135595 0)
(0.99808 -0.000135418 0)
(0.996674 -0.000183735 0)
(0.995723 0.000184166 0)
(0.995789 0.00153772 0)
(0.99545 0.00244571 0)
(0.995516 0.00352244 0)
(0.996024 0.00465622 0)
(0.996281 0.0054591 0)
(0.99604 0.00645168 0)
(0.998506 -0.000364155 0)
(0.999865 0.00332527 0)
(1.00514 -0.000205162 0)
(0.998828 -0.00384917 0)
(0.996976 0.00419796 0)
(1.00167 0.000799578 0)
(0.999973 0.00170096 0)
(1.00208 0.0012882 0)
(1.00276 -0.00353036 0)
(0.996988 -0.000779867 0)
(0.99701 -0.00120549 0)
(0.998164 -0.000278546 0)
(0.996724 3.84036e-05 0)
(0.995854 0.000234911 0)
(0.995976 0.00155699 0)
(0.995632 0.00259088 0)
(0.995729 0.00352723 0)
(0.996241 0.0046373 0)
(0.996494 0.00555282 0)
(0.996314 0.00641016 0)
(0.998585 -0.000352138 0)
(0.999858 0.00320363 0)
(1.00497 -0.000180567 0)
(0.998946 -0.00360415 0)
(0.997087 0.00399694 0)
(1.00159 0.000865554 0)
(0.999991 0.00151558 0)
(1.0019 0.00137703 0)
(1.00269 -0.00338934 0)
(0.9971 -0.000692878 0)
(0.997054 -0.0010292 0)
(0.998259 -0.000420129 0)
(0.996789 0.000238864 0)
(0.995979 0.000329861 0)
(0.996178 0.00155424 0)
(0.995824 0.0027308 0)
(0.995938 0.00356083 0)
(0.996475 0.00458106 0)
(0.99672 0.00559723 0)
(0.996569 0.00641728 0)
(0.998665 -0.000341978 0)
(0.999852 0.00308568 0)
(1.00479 -0.000165378 0)
(0.999063 -0.00334845 0)
(0.997201 0.003788 0)
(1.00151 0.000938973 0)
(1.00001 0.00133484 0)
(1.00172 0.00145309 0)
(1.00263 -0.00322336 0)
(0.997222 -0.000637774 0)
(0.997091 -0.000832091 0)
(0.99836 -0.000544856 0)
(0.996873 0.000399584 0)
(0.996099 0.000464874 0)
(0.996393 0.0015402 0)
(0.996029 0.00285282 0)
(0.996141 0.00362312 0)
(0.996718 0.00450724 0)
(0.996967 0.00557457 0)
(0.996809 0.00645213 0)
(0.998745 -0.00033506 0)
(0.999846 0.00297493 0)
(1.00462 -0.000161305 0)
(0.99918 -0.00308192 0)
(0.997317 0.00357313 0)
(1.00143 0.00101839 0)
(1.00003 0.00116553 0)
(1.00155 0.00150839 0)
(1.00256 -0.0030331 0)
(0.997352 -0.000607704 0)
(0.997123 -0.000624111 0)
(0.998467 -0.00064178 0)
(0.99698 0.000529152 0)
(0.996215 0.000638038 0)
(0.996616 0.00152833 0)
(0.996251 0.00295032 0)
(0.996336 0.00371246 0)
(0.996962 0.0044399 0)
(0.997239 0.0054895 0)
(0.99705 0.00646686 0)
(0.998826 -0.000331571 0)
(0.99984 0.00287248 0)
(1.00445 -0.000170293 0)
(0.999295 -0.00280899 0)
(0.997434 0.00335764 0)
(1.00134 0.00109727 0)
(1.00006 0.00101467 0)
(1.00138 0.0015355 0)
(1.0025 -0.00281847 0)
(0.997492 -0.000594265 0)
(0.997151 -0.000414428 0)
(0.998575 -0.000705457 0)
(0.997112 0.000630937 0)
(0.996329 0.000841624 0)
(0.996843 0.00152296 0)
(0.996494 0.00301152 0)
(0.996528 0.00381916 0)
(0.997197 0.00439568 0)
(0.99753 0.00536332 0)
(0.997309 0.00642007 0)
(0.998907 -0.000331144 0)
(0.999834 0.00277646 0)
(1.00428 -0.000191374 0)
(0.999408 -0.0025323 0)
(0.997552 0.00314625 0)
(1.00126 0.0011711 0)
(1.00008 0.000888518 0)
(1.00123 0.00153556 0)
(1.00243 -0.00258723 0)
(0.997641 -0.000593043 0)
(0.997178 -0.000212491 0)
(0.998684 -0.000735107 0)
(0.997269 0.000704748 0)
(0.996442 0.00106503 0)
(0.997069 0.00152821 0)
(0.99676 0.00302947 0)
(0.996723 0.00392905 0)
(0.997417 0.0043805 0)
(0.99783 0.00522433 0)
(0.997597 0.00630007 0)
(0.998987 -0.000334315 0)
(0.999828 0.00268928 0)
(1.00412 -0.000222959 0)
(0.99952 -0.00225545 0)
(0.99767 0.00294345 0)
(1.00118 0.00123188 0)
(1.00011 0.000794774 0)
(1.00108 0.00151287 0)
(1.00235 -0.00235021 0)
(0.997797 -0.000586535 0)
(0.997207 -1.87088e-05 0)
(0.998792 -0.00072835 0)
(0.997453 0.000754335 0)
(0.996559 0.00130036 0)
(0.997288 0.00155367 0)
(0.997048 0.00300474 0)
(0.996926 0.00402781 0)
(0.997622 0.00439019 0)
(0.998128 0.00509622 0)
(0.997915 0.00612885 0)
(0.999066 -0.00034182 0)
(0.99982 0.00261294 0)
(1.00396 -0.000262254 0)
(0.99963 -0.0019874 0)
(0.997787 0.00275684 0)
(1.0011 0.00127302 0)
(1.00014 0.000731809 0)
(1.00095 0.00147279 0)
(1.00228 -0.00211312 0)
(0.997963 -0.000569914 0)
(0.997238 0.000166288 0)
(0.998896 -0.000687644 0)
(0.997663 0.000786217 0)
(0.996681 0.00154146 0)
(0.997494 0.00160703 0)
(0.997356 0.0029392 0)
(0.997146 0.00410401 0)
(0.997812 0.0044201 0)
(0.998414 0.00498399 0)
(0.998254 0.00593518 0)
(0.999144 -0.000353203 0)
(0.999811 0.00254459 0)
(1.0038 -0.000309152 0)
(0.999739 -0.00173311 0)
(0.997902 0.00259611 0)
(1.00103 0.00129211 0)
(1.00016 0.000700257 0)
(1.00083 0.00141996 0)
(1.00221 -0.00188894 0)
(0.998135 -0.000540538 0)
(0.997275 0.000345237 0)
(0.998997 -0.000621672 0)
(0.997901 0.000798519 0)
(0.996813 0.00177899 0)
(0.997681 0.00169574 0)
(0.99768 0.00283959 0)
(0.99739 0.00414605 0)
(0.99799 0.00447358 0)
(0.998684 0.00488532 0)
(0.998602 0.00573792 0)
(0.999222 -0.000368043 0)
(0.999799 0.002483 0)
(1.00365 -0.000358456 0)
(0.999849 -0.00150064 0)
(0.998014 0.00246885 0)
(1.00095 0.00128165 0)
(1.00019 0.000697668 0)
(1.00072 0.00136996 0)
(1.00215 -0.00169048 0)
(0.998317 -0.000501295 0)
(0.997316 0.000523898 0)
(0.99909 -0.000527773 0)
(0.998165 0.000788692 0)
(0.996961 0.00199853 0)
(0.997843 0.00182398 0)
(0.998012 0.00271798 0)
(0.997665 0.00413308 0)
(0.998163 0.00454568 0)
(0.99893 0.00480551 0)
(0.998951 0.00554092 0)
(0.999298 -0.000385913 0)
(0.999784 0.00242838 0)
(1.0035 -0.000404379 0)
(0.999961 -0.00129775 0)
(0.998122 0.00237941 0)
(1.00088 0.00124631 0)
(1.00021 0.000711513 0)
(1.00061 0.00133605 0)
(1.00208 -0.0015103 0)
(0.998508 -0.000456874 0)
(0.997365 0.000705632 0)
(0.999172 -0.000400223 0)
(0.998452 0.000751374 0)
(0.997132 0.00218646 0)
(0.99798 0.00199742 0)
(0.99834 0.00260353 0)
(0.997979 0.00405392 0)
(0.998339 0.00461465 0)
(0.99915 0.0047592 0)
(0.999288 0.00534691 0)
(0.999372 -0.000406144 0)
(0.999766 0.00237936 0)
(1.00335 -0.000443692 0)
(1.00007 -0.00113279 0)
(0.998224 0.00233473 0)
(1.00081 0.00119213 0)
(1.00024 0.000729326 0)
(1.00051 0.00133093 0)
(1.00202 -0.00134279 0)
(0.998712 -0.000414415 0)
(0.997424 0.000894805 0)
(0.999239 -0.000235066 0)
(0.998758 0.000688855 0)
(0.997335 0.00232393 0)
(0.998093 0.00220925 0)
(0.99865 0.00252662 0)
(0.998328 0.0039195 0)
(0.998533 0.00465291 0)
(0.99934 0.004754 0)
(0.999601 0.00517256 0)
(0.999445 -0.00042908 0)
(0.999745 0.0023348 0)
(1.00321 -0.000471086 0)
(1.00019 -0.00100905 0)
(0.998322 0.00232746 0)
(1.00074 0.00113107 0)
(1.00028 0.000734822 0)
(1.00041 0.00136218 0)
(1.00196 -0.00117762 0)
(0.99893 -0.000385879 0)
(0.997498 0.00108309 0)
(0.999286 -3.25682e-05 0)
(0.999073 0.000620546 0)
(0.997579 0.00239958 0)
(0.998193 0.00243721 0)
(0.998928 0.00249915 0)
(0.998703 0.00374893 0)
(0.998759 0.00463946 0)
(0.999511 0.00477284 0)
(0.999877 0.00504202 0)
(0.999515 -0.000452736 0)
(0.999719 0.00229118 0)
(1.00306 -0.000481341 0)
(1.00032 -0.000928144 0)
(0.998415 0.00234275 0)
(1.00067 0.0010777 0)
(1.00032 0.000714323 0)
(1.00032 0.00142082 0)
(1.00189 -0.000998404 0)
(0.99916 -0.000385621 0)
(0.997591 0.00125329 0)
(0.999311 0.000212278 0)
(0.999387 0.000567161 0)
(0.997866 0.00240724 0)
(0.99829 0.00265556 0)
(0.999166 0.00252203 0)
(0.99909 0.00356219 0)
(0.999023 0.00456805 0)
(0.999675 0.00478269 0)
(1.00011 0.00496205 0)
(0.999583 -0.000476707 0)
(0.999691 0.00224878 0)
(1.0029 -0.000470997 0)
(1.00045 -0.00089474 0)
(0.998504 0.00236801 0)
(1.00059 0.00105234 0)
(1.00037 0.000662764 0)
(1.00025 0.00149362 0)
(1.00181 -0.000789396 0)
(0.9994 -0.000404848 0)
(0.997713 0.00138741 0)
(0.999316 0.000496943 0)
(0.999685 0.000547119 0)
(0.998194 0.00234807 0)
(0.998398 0.00284361 0)
(0.999361 0.0025964 0)
(0.999474 0.00338289 0)
(0.999326 0.00444585 0)
(0.99985 0.00476236 0)
(1.0003 0.00491388 0)
(0.999648 -0.000499479 0)
(0.999661 0.00220168 0)
(1.00274 -0.000435162 0)
(1.00058 -0.000899419 0)
(0.998595 0.00238887 0)
(1.00049 0.00107055 0)
(1.00043 0.00058531 0)
(1.00018 0.00156557 0)
(1.00172 -0.000538854 0)
(0.999641 -0.000423718 0)
(0.997868 0.00146641 0)
(0.999307 0.000802388 0)
(0.999955 0.000580109 0)
(0.998556 0.00224472 0)
(0.998532 0.00298347 0)
(0.999515 0.00271599 0)
(0.999838 0.00323332 0)
(0.999662 0.00428393 0)
(1.00005 0.00470835 0)
(1.00048 0.00486688 0)
(0.999709 -0.000519486 0)
(0.999629 0.00214753 0)
(1.00257 -0.00037436 0)
(1.00071 -0.000931311 0)
(0.99869 0.00238548 0)
(1.00038 0.00114029 0)
(1.00048 0.000490601 0)
(1.00014 0.00161988 0)
(1.00161 -0.000245795 0)
(0.999871 -0.000430317 0)
(0.998059 0.0014782 0)
(0.999294 0.00110054 0)
(1.00019 0.000673437 0)
(0.99894 0.00212579 0)
(0.998701 0.00306273 0)
(0.999636 0.00286008 0)
(1.00016 0.00312825 0)
(1.00002 0.00409137 0)
(1.00027 0.00462028 0)
(1.00064 0.00479424 0)
(0.999766 -0.000533594 0)
(0.999597 0.00208096 0)
(1.00238 -0.000286615 0)
(1.00085 -0.000984197 0)
(0.998794 0.00234585 0)
(1.00026 0.00126288 0)
(1.00054 0.000400322 0)
(1.00012 0.00163457 0)
(1.00149 6.4617e-05 0)
(1.00008 -0.000395579 0)
(0.998284 0.00143262 0)
(0.999289 0.00136607 0)
(1.00038 0.000820068 0)
(0.99933 0.00201268 0)
(0.99891 0.00307901 0)
(0.999736 0.00300034 0)
(1.00044 0.00307413 0)
(1.00039 0.00388505 0)
(1.00052 0.00449931 0)
(1.00082 0.0046908 0)
(0.999818 -0.000541132 0)
(0.999566 0.00199805 0)
(1.00218 -0.000169751 0)
(1.00097 -0.00104527 0)
(0.998912 0.00226126 0)
(1.00012 0.00142332 0)
(1.00058 0.000332819 0)
(1.00013 0.00159866 0)
(1.00136 0.000381773 0)
(1.00026 -0.000299116 0)
(0.998536 0.00135038 0)
(0.999304 0.00157689 0)
(1.00052 0.00100094 0)
(0.999709 0.00191923 0)
(0.999157 0.00304086 0)
(0.999829 0.00311561 0)
(1.00067 0.00306743 0)
(1.00074 0.00368986 0)
(1.00079 0.00435169 0)
(1.00101 0.00457123 0)
(0.999866 -0.000541719 0)
(0.99954 0.00189933 0)
(1.00198 -2.86217e-05 0)
(1.00109 -0.00110414 0)
(0.999048 0.00212212 0)
(0.999978 0.00160737 0)
(1.0006 0.000307692 0)
(1.00016 0.00151624 0)
(1.00123 0.00069207 0)
(1.00039 -0.000136408 0)
(0.9988 0.00126022 0)
(0.999346 0.00171821 0)
(1.00064 0.00119514 0)
(1.00007 0.00185736 0)
(0.999437 0.00296415 0)
(0.99993 0.00319485 0)
(1.00085 0.00309643 0)
(1.00108 0.00352211 0)
(1.00108 0.00417947 0)
(1.0012 0.00445002 0)
(0.999909 -0.000531548 0)
(0.999518 0.00177572 0)
(1.00176 0.000128422 0)
(1.00118 -0.00114463 0)
(0.999205 0.0019334 0)
(0.999832 0.00178939 0)
(1.00059 0.000348815 0)
(1.00022 0.0013989 0)
(1.00112 0.000961666 0)
(1.00049 9.12943e-05 0)
(0.999062 0.00119815 0)
(0.999416 0.00180383 0)
(1.00072 0.00138438 0)
(1.00039 0.0018309 0)
(0.999739 0.00286335 0)
(1.00005 0.00322989 0)
(1.00098 0.0031429 0)
(1.00137 0.00339059 0)
(1.00138 0.00398244 0)
(1.0014 0.00432614 0)
(0.999945 -0.000511126 0)
(0.999504 0.00163181 0)
(1.00154 0.000295274 0)
(1.00126 -0.00115372 0)
(0.99938 0.0017033 0)
(0.999696 0.0019446 0)
(1.00055 0.000460056 0)
(1.0003 0.00127057 0)
(1.00104 0.00116983 0)
(1.00055 0.000354555 0)
(0.999308 0.00117636 0)
(0.999511 0.00185485 0)
(1.00079 0.00155595 0)
(1.00067 0.0018361 0)
(1.00005 0.00275158 0)
(1.00019 0.00321821 0)
(1.00109 0.00318458 0)
(1.00161 0.00330417 0)
(1.00168 0.00377802 0)
(1.0016 0.00418481 0)
(0.999976 -0.000481978 0)
(0.999499 0.00147359 0)
(1.00131 0.000464437 0)
(1.00131 -0.00112024 0)
(0.999574 0.00144113 0)
(0.999579 0.00205685 0)
(1.00048 0.00062475 0)
(1.00038 0.00116478 0)
(1.00098 0.00130367 0)
(1.00059 0.000621092 0)
(0.999532 0.00119258 0)
(0.999626 0.0018847 0)
(1.00086 0.00170762 0)
(1.00092 0.00187075 0)
(1.00036 0.00264508 0)
(1.00036 0.00316452 0)
(1.00118 0.00319891 0)
(1.0018 0.00325267 0)
(1.00197 0.00359437 0)
(1.00182 0.00401245 0)
(1 -0.000442641 0)
(0.999503 0.00129975 0)
(1.00109 0.000624147 0)
(1.00133 -0.00103727 0)
(0.99978 0.00116589 0)
(0.999492 0.00210853 0)
(1.00038 0.000831144 0)
(1.00045 0.00109441 0)
(1.00096 0.00137828 0)
(1.00061 0.000874549 0)
(0.999728 0.00124923 0)
(0.999756 0.00189763 0)
(1.00092 0.00183321 0)
(1.00112 0.00192164 0)
(1.00066 0.00255891 0)
(1.00055 0.00308234 0)
(1.00128 0.00317899 0)
(1.00195 0.00320936 0)
(1.00222 0.00344867 0)
(1.00206 0.00382092 0)
(1.00002 -0.000394909 0)
(0.999519 0.00111811 0)
(1.00088 0.000764031 0)
(1.00131 -0.000907015 0)
(0.999989 0.000894476 0)
(0.999443 0.0020927 0)
(1.00027 0.00105839 0)
(1.0005 0.00106861 0)
(1.00096 0.0014153 0)
(1.00063 0.00108833 0)
(0.999896 0.0013345 0)
(0.999891 0.00190822 0)
(1.00098 0.00193864 0)
(1.0013 0.00198427 0)
(1.00093 0.00249546 0)
(1.00075 0.00299013 0)
(1.00138 0.00313013 0)
(1.00208 0.0031502 0)
(1.00244 0.00332553 0)
(1.00229 0.0036361 0)
(1.00004 -0.000342123 0)
(0.999546 0.000940195 0)
(1.00068 0.000874895 0)
(1.00126 -0.0007366 0)
(1.00019 0.000644642 0)
(0.999437 0.00200992 0)
(1.00015 0.00127452 0)
(1.00053 0.00109742 0)
(1.00099 0.00143177 0)
(1.00065 0.00127377 0)
(1.00004 0.00143165 0)
(1.00003 0.00192149 0)
(1.00105 0.0020199 0)
(1.00145 0.00205761 0)
(1.00117 0.00245227 0)
(1.00094 0.00290061 0)
(1.00148 0.00306294 0)
(1.00219 0.00307578 0)
(1.00262 0.00319998 0)
(1.00251 0.00346953 0)
(1.00005 -0.000285865 0)
(0.999583 0.000772827 0)
(1.0005 0.000949929 0)
(1.00118 -0.000539444 0)
(1.00038 0.000436507 0)
(0.999474 0.00187543 0)
(1.00004 0.00146266 0)
(1.00053 0.00117175 0)
(1.00102 0.00143312 0)
(1.00068 0.00142691 0)
(1.00016 0.00154618 0)
(1.00016 0.0019349 0)
(1.00112 0.00207475 0)
(1.00157 0.00212868 0)
(1.00139 0.00243978 0)
(1.00113 0.00282066 0)
(1.00158 0.00298455 0)
(1.00227 0.00299347 0)
(1.00279 0.00306526 0)
(1.00271 0.00330749 0)
(1.00005 -0.00022847 0)
(0.999627 0.000619407 0)
(1.00036 0.00098756 0)
(1.00108 -0.000328248 0)
(1.00055 0.000279748 0)
(0.99955 0.00170537 0)
(0.999945 0.00160555 0)
(1.00051 0.00127496 0)
(1.00106 0.00144313 0)
(1.00073 0.00153305 0)
(1.00026 0.00166992 0)
(1.00028 0.00196051 0)
(1.0012 0.00210812 0)
(1.00169 0.00218039 0)
(1.00158 0.00245098 0)
(1.0013 0.0027649 0)
(1.00167 0.00290414 0)
(1.00234 0.00290622 0)
(1.00293 0.00292633 0)
(1.00291 0.00312848 0)
(1.00006 -0.00017345 0)
(0.999676 0.000488177 0)
(1.00023 0.000986819 0)
(1.00096 -0.000120464 0)
(1.00068 0.000183111 0)
(0.999659 0.00151985 0)
(0.999881 0.00168821 0)
(1.00047 0.00138529 0)
(1.0011 0.0014694 0)
(1.00079 0.00161252 0)
(1.00036 0.0017757 0)
(1.00038 0.00200072 0)
(1.00129 0.00212451 0)
(1.00181 0.00220921 0)
(1.00175 0.00245516 0)
(1.00145 0.00273967 0)
(1.00175 0.00283564 0)
(1.00239 0.00281985 0)
(1.00304 0.00279345 0)
(1.00311 0.00293241 0)
(1.00006 -0.000121885 0)
(0.999725 0.000379591 0)
(1.00014 0.000956424 0)
(1.00083 7.55286e-05 0)
(1.00079 0.000147432 0)
(0.999789 0.00133485 0)
(0.999848 0.00171806 0)
(1.00042 0.00149234 0)
(1.00113 0.00149901 0)
(1.00085 0.00167434 0)
(1.00045 0.00186948 0)
(1.00047 0.00204844 0)
(1.00136 0.00213269 0)
(1.00192 0.00221866 0)
(1.00192 0.00244279 0)
(1.00159 0.00272565 0)
(1.0018 0.00279652 0)
(1.00241 0.00273904 0)
(1.0031 0.00267528 0)
(1.00328 0.00273616 0)
(1.00005 -7.52981e-05 0)
(0.999775 0.000294841 0)
(1.00007 0.0009045 0)
(1.0007 0.000252679 0)
(1.00086 0.000162133 0)
(0.999929 0.00116319 0)
(0.999851 0.00170602 0)
(1.00038 0.00158322 0)
(1.00116 0.00153746 0)
(1.00093 0.00171312 0)
(1.00054 0.0019496 0)
(1.00055 0.00209932 0)
(1.00143 0.00213907 0)
(1.00203 0.00220082 0)
(1.00209 0.00241353 0)
(1.00172 0.00269516 0)
(1.00184 0.0027815 0)
(1.00239 0.00267826 0)
(1.00312 0.00257032 0)
(1.00341 0.00256284 0)
(1.00005 -3.48529e-05 0)
(0.999821 0.000235147 0)
(1.00003 0.000836749 0)
(1.00058 0.000397177 0)
(1.0009 0.000211883 0)
(1.00007 0.00102189 0)
(0.999885 0.00166208 0)
(1.00034 0.00164682 0)
(1.00117 0.00157309 0)
(1.00101 0.0017378 0)
(1.00063 0.00200804 0)
(1.0006 0.00215055 0)
(1.00147 0.00215308 0)
(1.00213 0.00217018 0)
(1.00226 0.00235031 0)
(1.00187 0.00264251 0)
(1.00187 0.0027622 0)
(1.00234 0.00265293 0)
(1.0031 0.00248406 0)
(1.00349 0.00242252 0)
(1.00005 1.87689e-07 0)
(0.999864 0.000194244 0)
(1.00001 0.000766203 0)
(1.00047 0.00050884 0)
(1.00091 0.000280353 0)
(1.0002 0.000918087 0)
(0.999946 0.00159837 0)
(1.00031 0.00169144 0)
(1.00117 0.00159787 0)
(1.0011 0.00174641 0)
(1.00073 0.00205056 0)
(1.00065 0.00220173 0)
(1.0015 0.00215903 0)
(1.0022 0.00214747 0)
(1.00242 0.0022635 0)
(1.00204 0.00255652 0)
(1.00191 0.00272707 0)
(1.00226 0.00264672 0)
(1.00302 0.00243294 0)
(1.00351 0.00231122 0)
(1.00004 3.01014e-05 0)
(0.999901 0.000170475 0)
(1 0.000696341 0)
(1.00037 0.00058929 0)
(1.0009 0.000357891 0)
(1.00033 0.000847029 0)
(1.00003 0.00152677 0)
(1.00028 0.00171606 0)
(1.00117 0.00161936 0)
(1.00119 0.00173014 0)
(1.00084 0.00206175 0)
(1.00069 0.00225846 0)
(1.00149 0.00216683 0)
(1.00224 0.00211238 0)
(1.00255 0.00218688 0)
(1.00222 0.00242813 0)
(1.00199 0.0026579 0)
(1.00218 0.00264162 0)
(1.00289 0.00241851 0)
(1.00346 0.00223817 0)
(1.00004 5.44924e-05 0)
(0.999932 0.000158939 0)
(1.00001 0.000632815 0)
(1.00029 0.000645155 0)
(1.00088 0.00043589 0)
(1.00044 0.000797188 0)
(1.00012 0.00145487 0)
(1.00028 0.00171906 0)
(1.00115 0.00163912 0)
(1.00127 0.0017033 0)
(1.00097 0.00203478 0)
(1.00072 0.00229622 0)
(1.00146 0.00220917 0)
(1.00226 0.00206651 0)
(1.00266 0.00211116 0)
(1.0024 0.00230163 0)