/*--------------------------------*- C++ -*----------------------------------*\
| =========                 |                                                 |
| \\      /  F ield         | OpenFOAM: The Open Source CFD Toolbox           |
|  \\    /   O peration     | Version:  2106                                  |
|   \\  /    A nd           | Website:  www.openfoam.com                      |
|    \\/     M anipulation  |                                                 |
\*---------------------------------------------------------------------------*/
FoamFile
{
    version     2.0;
    format      ascii;
    arch        "LSB;label=32;scalar=64";
    class       surfaceScalarField;
    location    "0.435";
    object      phi;
}
// * * * * * * * * * * * * * * * * * * * * * * * * * * * * * * * * * * * * * //

dimensions      [0 3 -1 0 0 0 0];

oriented        oriented;

internalField   nonuniform List<scalar> 
19000
(
1.1744e-06
-2.37095e-07
1.1787e-06
-2.42392e-07
1.19552e-06
-5.92762e-07
1.17792e-06
4.72474e-07
1.15708e-06
-8.78326e-08
1.1616e-06
6.85203e-07
1.18974e-06
-5.71179e-07
1.19332e-06
-8.53926e-08
1.21382e-06
-5.09799e-07
1.22537e-06
-6.71408e-08
1.24352e-06
-2.18033e-07
1.24143e-06
7.0804e-08
1.23753e-06
1.05634e-07
1.22686e-06
2.32907e-07
1.22359e-06
1.76746e-07
1.21301e-06
1.40284e-07
1.21965e-06
1.73241e-07
1.20116e-06
-9.65252e-08
1.21147e-06
1.45523e-07
-1.36456e-07
1.15734e-06
1.23006e-06
-2.42892e-07
1.23524e-06
-2.47574e-07
1.25445e-06
-6.11971e-07
1.24179e-06
4.85131e-07
1.21984e-06
-6.5881e-08
1.22877e-06
6.76267e-07
1.25294e-06
-5.95346e-07
1.25799e-06
-9.0438e-08
1.27737e-06
-5.29182e-07
1.29115e-06
-8.09202e-08
1.3073e-06
-2.34187e-07
1.30978e-06
6.83229e-08
1.29852e-06
1.16902e-07
1.29749e-06
2.33935e-07
1.28089e-06
1.93341e-07
1.28533e-06
1.3584e-07
1.27228e-06
1.86291e-07
1.2735e-06
-9.77383e-08
1.25729e-06
1.61727e-07
-1.22352e-07
1.24319e-06
1.28606e-06
-2.46167e-07
1.2947e-06
-2.56217e-07
1.31479e-06
-6.32055e-07
1.31191e-06
4.88011e-07
1.28823e-06
-4.2207e-08
1.30002e-06
6.64477e-07
1.31266e-06
-6.07979e-07
1.32258e-06
-1.0036e-07
1.33581e-06
-5.42415e-07
1.35763e-06
-1.0274e-07
1.36853e-06
-2.45082e-07
1.37954e-06
5.73146e-08
1.36345e-06
1.32986e-07
1.36642e-06
2.30971e-07
1.34744e-06
2.12316e-07
1.35021e-06
1.33071e-07
1.33963e-06
1.96875e-07
1.33421e-06
-9.23173e-08
1.32957e-06
1.6636e-07
-9.79023e-08
1.30513e-06
1.3432e-06
-2.45266e-07
1.35475e-06
-2.67763e-07
1.3749e-06
-6.52207e-07
1.38193e-06
4.80978e-07
1.36001e-06
-2.02876e-08
1.37011e-06
6.54377e-07
1.36867e-06
-6.06534e-07
1.38046e-06
-1.1215e-07
1.38824e-06
-5.50198e-07
1.41532e-06
-1.29816e-07
1.42535e-06
-2.55117e-07
1.44091e-06
4.17538e-08
1.4301e-06
1.43796e-07
1.43082e-06
2.30251e-07
1.41711e-06
2.26029e-07
1.41424e-06
1.35935e-07
1.40611e-06
2.0501e-07
1.39464e-06
-8.08524e-08
1.39214e-06
1.68863e-07
-6.9739e-08
1.36398e-06
1.40282e-06
-2.39737e-07
1.41484e-06
-2.79781e-07
1.43469e-06
-6.72053e-07
1.44904e-06
4.66626e-07
1.43275e-06
-3.99307e-09
1.43837e-06
6.48754e-07
1.42445e-06
-5.92612e-07
1.43397e-06
-1.21676e-07
1.4385e-06
-5.54727e-07
1.46658e-06
-1.57896e-07
1.47885e-06
-2.6738e-07
1.4969e-06
2.37029e-08
1.49453e-06
1.46161e-07
1.49481e-06
2.29975e-07
1.48506e-06
2.35775e-07
1.47964e-06
1.41356e-07
1.47079e-06
2.13862e-07
1.45542e-06
-6.54869e-08
1.45225e-06
1.72036e-07
-3.99553e-08
1.42246e-06
1.46667e-06
-2.30732e-07
1.47625e-06
-2.89362e-07
1.49532e-06
-6.91121e-07
1.5137e-06
4.48245e-07
1.50502e-06
4.69026e-09
1.50643e-06
6.4734e-07
1.48396e-06
-5.70136e-07
1.48921e-06
-1.26928e-07
1.4914e-06
-5.56922e-07
1.51777e-06
-1.84267e-07
1.53175e-06
-2.81355e-07
1.55202e-06
3.42812e-09
1.55647e-06
1.41714e-07
1.55893e-06
2.27514e-07
1.55152e-06
2.43189e-07
1.54518e-06
1.47698e-07
1.53571e-06
2.23333e-07
1.5172e-06
-4.69853e-08
1.51381e-06
1.75434e-07
-9.38732e-09
1.48324e-06
1.5359e-06
-2.20417e-07
1.54119e-06
-2.9465e-07
1.55836e-06
-7.08294e-07
1.57816e-06
4.28443e-07
1.57641e-06
6.44551e-09
1.57602e-06
6.47727e-07
1.54929e-06
-5.43401e-07
1.55067e-06
-1.28314e-07
1.55001e-06
-5.56262e-07
1.57317e-06
-2.07427e-07
1.58663e-06
-2.94807e-07
1.60847e-06
-1.84123e-08
1.61731e-06
1.32871e-07
1.62265e-06
2.22176e-07
1.61705e-06
2.48781e-07
1.61046e-06
1.54291e-07
1.60132e-06
2.32473e-07
1.58069e-06
-2.63541e-08
1.57776e-06
1.78369e-07
2.08801e-08
1.54749e-06
1.6106e-06
-2.10884e-07
1.61141e-06
-2.95459e-07
1.62503e-06
-7.21921e-07
1.64459e-06
4.08886e-07
1.64742e-06
3.61847e-09
1.64795e-06
6.47192e-07
1.62056e-06
-5.16011e-07
1.61967e-06
-1.2742e-07
1.61542e-06
-5.52011e-07
1.63438e-06
-2.26389e-07
1.64513e-06
-3.05562e-07
1.66702e-06
-4.02975e-08
1.67807e-06
1.21824e-07
1.68577e-06
2.14469e-07
1.68185e-06
2.527e-07
1.67559e-06
1.60556e-07
1.66785e-06
2.40212e-07
1.64633e-06
-4.8331e-09
1.64459e-06
1.80106e-07
4.97131e-08
1.61576e-06
1.69005e-06
-2.03362e-07
1.68746e-06
-2.92867e-07
1.696e-06
-7.30465e-07
1.71429e-06
3.906e-07
1.71919e-06
-1.28073e-09
1.72254e-06
6.43846e-07
1.69695e-06
-4.90422e-07
1.69544e-06
-1.25912e-07
1.68747e-06
-5.44044e-07
1.70175e-06
-2.40667e-07
1.70831e-06
-3.1212e-07
1.72842e-06
-6.04109e-08
1.73969e-06
1.1056e-07
1.74887e-06
2.0528e-07
1.74663e-06
2.54942e-07
1.74125e-06
1.65937e-07
1.73596e-06
2.45499e-07
1.71476e-06
1.63716e-08
1.7148e-06
1.80064e-07
7.61029e-08
1.68841e-06
1.77344e-06
-1.98083e-07
1.76893e-06
-2.88351e-07
1.7716e-06
-7.33134e-07
1.78802e-06
3.74174e-07
1.79322e-06
-6.47802e-09
1.80019e-06
6.36873e-07
1.77759e-06
-4.67821e-07
1.77669e-06
-1.25012e-07
1.76554e-06
-5.32889e-07
1.77534e-06
-2.5047e-07
1.77701e-06
-3.13791e-07
1.79388e-06
-7.72776e-08
1.80374e-06
1.00692e-07
1.81353e-06
1.95491e-07
1.81307e-06
2.55403e-07
1.80898e-06
1.70034e-07
1.80691e-06
2.4757e-07
1.78696e-06
3.63214e-08
1.78896e-06
1.78061e-07
9.92894e-08
1.76577e-06
1.86028e-06
-1.94611e-07
1.85507e-06
-2.83142e-07
1.852e-06
-7.30065e-07
1.86641e-06
3.59763e-07
1.87102e-06
-1.10852e-08
1.88162e-06
6.26264e-07
1.86209e-06
-4.48282e-07
1.86245e-06
-1.25376e-07
1.84894e-06
-5.19379e-07
1.8551e-06
-2.56633e-07
1.852e-06
-3.10692e-07
1.8649e-06
-9.01791e-08
1.8724e-06
9.31943e-08
1.88208e-06
1.85811e-07
1.88349e-06
2.54e-07
1.88078e-06
1.72734e-07
1.88217e-06
2.46185e-07
1.86401e-06
5.44843e-08
1.86766e-06
1.74413e-07
1.18818e-07
1.84813e-06
1.95049e-06
-1.92263e-07
1.94534e-06
-2.77996e-07
1.93739e-06
-7.2211e-07
1.95006e-06
3.4709e-07
1.95382e-06
-1.48402e-08
1.96761e-06
6.12473e-07
1.95046e-06
-4.31133e-07
1.95226e-06
-1.27177e-07
1.93718e-06
-5.04297e-07
1.94085e-06
-2.60302e-07
1.93372e-06
-3.03567e-07
1.94278e-06
-9.9239e-08
1.9477e-06
8.82761e-08
1.9568e-06
1.76712e-07
1.96003e-06
2.50771e-07
1.9585e-06
1.74265e-07
1.96302e-06
2.41668e-07
1.94679e-06
7.07119e-08
1.95138e-06
1.6982e-07
1.34553e-07
1.93565e-06
2.04433e-06
-1.90403e-07
2.03961e-06
-2.73279e-07
2.02793e-06
-7.1043e-07
2.03944e-06
3.35581e-07
2.04237e-06
-1.77738e-08
2.05873e-06
5.9612e-07
2.043e-06
-4.15402e-07
2.04611e-06
-1.30286e-07
2.02999e-06
-4.88177e-07
2.03226e-06
-2.62572e-07
2.02217e-06
-2.9348e-07
2.02811e-06
-1.05183e-07
2.03088e-06
8.55111e-08
2.03915e-06
1.68442e-07
2.04403e-06
2.45889e-07
2.04324e-06
1.75052e-07
2.05013e-06
2.34781e-07
2.03575e-06
8.50854e-08
2.04045e-06
1.65122e-07
1.46636e-07
2.02837e-06
2.14217e-06
-1.88567e-07
2.13802e-06
-2.69136e-07
2.12371e-06
-6.96119e-07
2.1347e-06
3.24587e-07
2.13691e-06
-1.99743e-08
2.15524e-06
5.77783e-07
2.14002e-06
-4.00177e-07
2.14419e-06
-1.34458e-07
2.12731e-06
-4.71297e-07
2.12898e-06
-2.64243e-07
2.11699e-06
-2.81489e-07
2.12074e-06
-1.08935e-07
2.12212e-06
8.41335e-08
2.12947e-06
1.61093e-07
2.13575e-06
2.3961e-07
2.13527e-06
1.75532e-07
2.14358e-06
2.26469e-07
2.13092e-06
9.77489e-08
2.13502e-06
1.61017e-07
1.55431e-07
2.12623e-06
2.24439e-06
-1.86469e-07
2.24087e-06
-2.65618e-07
2.22474e-06
-6.79989e-07
2.23577e-06
3.1356e-07
2.23728e-06
-2.14866e-08
2.25717e-06
5.57896e-07
2.24179e-06
-3.84801e-07
2.24679e-06
-1.39457e-07
2.22927e-06
-4.53775e-07
2.23079e-06
-2.65762e-07
2.21775e-06
-2.68446e-07
2.22009e-06
-1.11278e-07
2.22088e-06
8.33397e-08
2.2273e-06
1.54671e-07
2.23471e-06
2.32206e-07
2.23426e-06
1.75979e-07
2.24307e-06
2.17656e-07
2.23204e-06
1.08783e-07
2.23515e-06
1.57911e-07
1.6145e-07
2.22913e-06
2.35136e-06
-1.83958e-07
2.3485e-06
-2.62754e-07
2.33104e-06
-6.62525e-07
2.34247e-06
3.02125e-07
2.34329e-06
-2.23045e-08
2.36445e-06
5.36736e-07
2.34855e-06
-3.689e-07
2.35419e-06
-1.451e-07
2.33608e-06
-4.3567e-07
2.33761e-06
-2.67288e-07
2.32412e-06
-2.54952e-07
2.32552e-06
-1.12682e-07
2.32639e-06
8.2475e-08
2.3319e-06
1.49156e-07
2.34016e-06
2.2395e-07
2.33969e-06
1.76448e-07
2.34824e-06
2.09101e-07
2.33884e-06
1.18188e-07
2.34083e-06
1.55914e-07
1.65259e-07
2.33702e-06
2.46339e-06
-1.80955e-07
2.46121e-06
-2.60573e-07
2.44264e-06
-6.43951e-07
2.4547e-06
2.90065e-07
2.45479e-06
-2.23996e-08
2.47707e-06
5.1446e-07
2.46049e-06
-3.5232e-07
2.46664e-06
-1.51249e-07
2.44802e-06
-4.17051e-07
2.44953e-06
-2.68795e-07
2.43599e-06
-2.41415e-07
2.43664e-06
-1.13326e-07
2.43801e-06
8.10966e-08
2.44267e-06
1.44502e-07
2.4515e-06
2.15112e-07
2.45112e-06
1.76835e-07
2.45888e-06
2.01336e-07
2.45112e-06
1.25951e-07
2.45213e-06
1.54906e-07
1.67419e-07
2.44997e-06
2.58076e-06
-1.77421e-07
2.57929e-06
-2.59105e-07
2.55969e-06
-6.24346e-07
2.57248e-06
2.77271e-07
2.57183e-06
-2.17489e-08
2.59513e-06
4.91163e-07
2.57786e-06
-3.35052e-07
2.58439e-06
-1.5778e-07
2.56536e-06
-3.98025e-07
2.56672e-06
-2.70154e-07
2.55344e-06
-2.28131e-07
2.55332e-06
-1.13204e-07
2.55545e-06
7.89598e-08
2.55934e-06
1.40619e-07
2.56847e-06
2.05975e-07
2.56835e-06
1.76955e-07
2.57508e-06
1.94605e-07
2.56885e-06
1.32181e-07
2.56916e-06
1.54601e-07
1.68443e-07
2.56814e-06
2.70374e-06
-1.7333e-07
2.70301e-06
-2.5838e-07
2.68239e-06
-6.03722e-07
2.69596e-06
2.63701e-07
2.69456e-06
-2.03476e-08
2.71879e-06
4.66926e-07
2.70091e-06
-3.17165e-07
2.70769e-06
-1.6456e-07
2.6884e-06
-3.78741e-07
2.68943e-06
-2.71183e-07
2.67665e-06
-2.15344e-07
2.67567e-06
-1.12225e-07
2.67865e-06
7.59802e-08
2.68191e-06
1.37358e-07
2.69106e-06
1.9682e-07
2.69138e-06
1.76641e-07
2.69707e-06
1.88908e-07
2.69214e-06
1.37116e-07
2.69209e-06
1.54647e-07
1.68748e-07
2.69179e-06
2.8326e-06
-1.68661e-07
2.83264e-06
-2.58422e-07
2.811e-06
-5.82081e-07
2.82535e-06
2.49352e-07
2.82322e-06
-1.82153e-08
2.8483e-06
4.41845e-07
2.82991e-06
-2.9878e-07
2.83679e-06
-1.71437e-07
2.81743e-06
-3.59381e-07
2.81793e-06
-2.71681e-07
2.80585e-06
-2.03262e-07
2.80394e-06
-1.10315e-07
2.8077e-06
7.22128e-08
2.81054e-06
1.34524e-07
2.81946e-06
1.87897e-07
2.82031e-06
1.75788e-07
2.8251e-06
1.84123e-07
2.82121e-06
1.41006e-07
2.82112e-06
1.54739e-07
1.68611e-07
2.82125e-06
2.96763e-06
-1.63398e-07
2.96846e-06
-2.59246e-07
2.94582e-06
-5.59441e-07
2.96091e-06
2.34256e-07
2.9581e-06
-1.53984e-08
2.9839e-06
4.16041e-07
2.96518e-06
-2.80059e-07
2.97197e-06
-1.78227e-07
2.95275e-06
-3.40161e-07
2.95251e-06
-2.71441e-07
2.94129e-06
-1.92048e-07
2.93844e-06
-1.07456e-07
2.94284e-06
6.78054e-08
2.94545e-06
1.31913e-07
2.95395e-06
1.79401e-07
2.95536e-06
1.74379e-07
2.9594e-06
1.80077e-07
2.95636e-06
1.44052e-07
2.95643e-06
1.54665e-07
1.68163e-07
2.95688e-06
3.10914e-06
-1.57529e-07
3.11075e-06
-2.60858e-07
3.08715e-06
-5.35838e-07
3.10293e-06
2.18475e-07
3.0995e-06
-1.19716e-08
3.12587e-06
3.89674e-07
3.10701e-06
-2.61199e-07
3.1135e-06
-1.84722e-07
3.09466e-06
-3.21316e-07
3.09349e-06
-2.70277e-07
3.08325e-06
-1.81801e-07
3.07951e-06
-1.03719e-07
3.08434e-06
6.29732e-08
3.08691e-06
1.29342e-07
3.09484e-06
1.71472e-07
3.09677e-06
1.72449e-07
3.10025e-06
1.766e-07
3.09792e-06
1.46386e-07
3.09826e-06
1.54317e-07
1.67414e-07
3.09901e-06
3.25743e-06
-1.51046e-07
3.25982e-06
-2.6325e-07
3.23532e-06
-5.1134e-07
3.25169e-06
2.02109e-07
3.24776e-06
-8.04353e-09
3.27449e-06
3.62942e-07
3.25573e-06
-2.42435e-07
3.26169e-06
-1.90689e-07
3.24346e-06
-3.03087e-07
3.24123e-06
-2.68045e-07
3.23197e-06
-1.72536e-07
3.2275e-06
-9.92485e-08
3.23252e-06
5.7948e-08
3.23518e-06
1.2668e-07
3.24246e-06
1.64197e-07
3.24485e-06
1.70052e-07
3.24791e-06
1.7355e-07
3.24621e-06
1.4808e-07
3.24686e-06
1.53667e-07
1.663e-07
3.24798e-06
3.41283e-06
-1.43947e-07
3.41598e-06
-2.66402e-07
3.39069e-06
-4.86045e-07
3.4075e-06
1.85297e-07
3.40322e-06
-3.75876e-09
3.43008e-06
3.36081e-07
3.41167e-06
-2.2403e-07
3.41687e-06
-1.95886e-07
3.39948e-06
-2.85694e-07
3.39609e-06
-2.64656e-07
3.38775e-06
-1.64195e-07
3.38272e-06
-9.42171e-08
3.38773e-06
5.29337e-08
3.39055e-06
1.23859e-07
3.39713e-06
1.57621e-07
3.39997e-06
1.67212e-07
3.40269e-06
1.70827e-07
3.40158e-06
1.49194e-07
3.40252e-06
1.52724e-07
1.64737e-07
3.40408e-06
3.5757e-06
-1.36235e-07
3.57957e-06
-2.70275e-07
3.55362e-06
-4.60091e-07
3.57069e-06
1.68224e-07
3.56623e-06
7.03082e-10
3.59295e-06
3.09361e-07
3.57519e-06
-2.06274e-07
3.57937e-06
-2.00065e-07
3.56299e-06
-2.69308e-07
3.55844e-06
-2.60111e-07
3.55091e-06
-1.5666e-07
3.54548e-06
-8.87937e-08
3.55034e-06
4.80813e-08
3.55332e-06
1.20876e-07
3.5592e-06
1.51742e-07
3.56246e-06
1.6395e-07
3.56498e-06
1.68311e-07
3.56435e-06
1.49822e-07
3.56556e-06
1.51512e-07
1.62674e-07
3.56762e-06
3.74639e-06
-1.27921e-07
3.75093e-06
-2.74815e-07
3.72449e-06
-4.3365e-07
3.7416e-06
1.51115e-07
3.73717e-06
5.12866e-09
3.76345e-06
2.83084e-07
3.74665e-06
-1.89471e-07
3.74958e-06
-2.02996e-07
3.7343e-06
-2.54033e-07
3.72868e-06
-2.54487e-07
3.72181e-06
-1.49791e-07
3.71611e-06
-8.30932e-08
3.72073e-06
4.34621e-08
3.72383e-06
1.17776e-07
3.72905e-06
1.46519e-07
3.73267e-06
1.60335e-07
3.73516e-06
1.65823e-07
3.7349e-06
1.50079e-07
3.73633e-06
1.50076e-07
1.60102e-07
3.73891e-06
3.92529e-06
-1.19025e-07
3.93042e-06
-2.79943e-07
3.90371e-06
-4.06937e-07
3.92058e-06
1.34238e-07
3.91644e-06
9.27487e-09
3.94195e-06
2.57571e-07
3.92639e-06
-1.73915e-07
3.92791e-06
-2.04514e-07
3.91375e-06
-2.39875e-07
3.90719e-06
-2.47923e-07
3.90086e-06
-1.43458e-07
3.89493e-06
-7.71611e-08
3.89928e-06
3.91039e-08
3.90248e-06
1.14579e-07
3.90705e-06
1.41947e-07
3.91094e-06
1.56449e-07
3.9136e-06
1.63161e-07
3.91363e-06
1.50049e-07
3.91521e-06
1.48495e-07
1.57064e-07
3.91825e-06
4.1128e-06
-1.09575e-07
4.11842e-06
-2.85561e-07
4.09168e-06
-3.80198e-07
4.10802e-06
1.17893e-07
4.10442e-06
1.28781e-08
4.12884e-06
2.33149e-07
4.11477e-06
-1.59842e-07
4.11483e-06
-2.04575e-07
4.1017e-06
-2.26747e-07
4.09435e-06
-2.4057e-07
4.08847e-06
-1.37573e-07
4.0823e-06
-7.09974e-08
4.08637e-06
3.50345e-08
4.08968e-06
1.11275e-07
4.0936e-06
1.38021e-07
4.09766e-06
1.52389e-07
4.10067e-06
1.60157e-07
4.10098e-06
1.49735e-07
4.10261e-06
1.46864e-07
1.5367e-07
4.106e-06
4.30934e-06
-9.96117e-08
4.31532e-06
-2.91543e-07
4.28883e-06
-3.53703e-07
4.30432e-06
1.02395e-07
4.30154e-06
1.56657e-08
4.32456e-06
2.10123e-07
4.31211e-06
-1.4739e-07
4.3108e-06
-2.03267e-07
4.29854e-06
-2.14482e-07
4.29056e-06
-2.32586e-07
4.28505e-06
-1.32072e-07
4.27866e-06
-6.45983e-08
4.28237e-06
3.13155e-08
4.28583e-06
1.07818e-07
4.28915e-06
1.34705e-07
4.29327e-06
1.48266e-07
4.2967e-06
1.56728e-07
4.29738e-06
1.49056e-07
4.29899e-06
1.45252e-07
1.50089e-07
4.30257e-06
4.51535e-06
-8.91863e-08
4.52155e-06
-2.9774e-07
4.49558e-06
-3.27742e-07
4.50991e-06
8.80661e-08
4.50821e-06
1.73673e-08
4.5296e-06
1.8873e-07
4.51878e-06
-1.36566e-07
4.5163e-06
-2.0079e-07
4.50469e-06
-2.02865e-07
4.49622e-06
-2.24121e-07
4.49106e-06
-1.26906e-07
4.48443e-06
-5.79764e-08
4.48768e-06
2.80652e-08
4.49139e-06
1.04109e-07
4.49417e-06
1.31931e-07
4.49822e-06
1.44219e-07
4.50208e-06
1.52863e-07
4.50324e-06
1.47895e-07
4.50483e-06
1.4366e-07
1.46509e-07
4.50841e-06
4.73129e-06
-7.83635e-08
4.73753e-06
-3.03978e-07
4.7124e-06
-3.0261e-07
4.72525e-06
7.52198e-08
4.72488e-06
1.77309e-08
4.74449e-06
1.69117e-07
4.73516e-06
-1.27229e-07
4.73179e-06
-1.97426e-07
4.7206e-06
-1.91677e-07
4.71177e-06
-2.15282e-07
4.70692e-06
-1.22063e-07
4.70008e-06
-5.11365e-08
4.70277e-06
2.53808e-08
4.70684e-06
1.00035e-07
4.70916e-06
1.29608e-07
4.71299e-06
1.40392e-07
4.71724e-06
1.48615e-07
4.719e-06
1.46138e-07
4.72063e-06
1.42026e-07
1.4307e-07
4.72407e-06
4.95765e-06
-6.72204e-08
4.96374e-06
-3.10062e-07
4.93973e-06
-2.78604e-07
4.95082e-06
6.4135e-08
4.952e-06
1.65516e-08
4.96978e-06
1.51335e-07
4.96167e-06
-1.19124e-07
4.95775e-06
-1.93502e-07
4.94677e-06
-1.80699e-07
4.93765e-06
-2.06158e-07
4.9331e-06
-1.17514e-07
4.92608e-06
-4.41221e-08
4.9281e-06
2.33599e-08
4.93262e-06
9.55213e-08
4.93465e-06
1.27571e-07
4.93811e-06
1.36936e-07
4.94263e-06
1.44098e-07
4.94506e-06
1.43704e-07
4.94686e-06
1.40231e-07
1.39833e-07
4.95009e-06
5.19494e-06
-5.58475e-08
5.20065e-06
-3.1577e-07
5.17806e-06
-2.56011e-07
5.18718e-06
5.50189e-08
5.18998e-06
1.37438e-08
5.20601e-06
1.35304e-07
5.1988e-06
-1.11911e-07
5.19465e-06
-1.89347e-07
5.1837e-06
-1.6975e-07
5.17433e-06
-1.9679e-07
5.17007e-06
-1.13251e-07
5.16297e-06
-3.70226e-08
5.16415e-06
2.21768e-08
5.16914e-06
9.05274e-08
5.17121e-06
1.25506e-07
5.17413e-06
1.34022e-07
5.17875e-06
1.39478e-07
5.18188e-06
1.4057e-07
5.18398e-06
1.3813e-07
1.36767e-07
5.18705e-06
5.44369e-06
-4.43495e-08
5.44879e-06
-3.20865e-07
5.42788e-06
-2.35104e-07
5.4349e-06
4.80015e-08
5.4393e-06
9.33723e-09
5.45376e-06
1.20845e-07
5.44706e-06
-1.05209e-07
5.44297e-06
-1.85259e-07
5.43195e-06
-1.58729e-07
5.42227e-06
-1.87113e-07
5.41843e-06
-1.09407e-07
5.41124e-06
-2.98317e-08
5.41142e-06
2.19959e-08
5.41687e-06
8.50731e-08
5.41933e-06
1.2305e-07
5.42165e-06
1.31705e-07
5.42614e-06
1.34982e-07
5.42992e-06
1.36798e-07
5.43245e-06
1.35595e-07
1.3376e-07
5.43546e-06
5.70445e-06
-3.2844e-08
5.70868e-06
-3.25091e-07
5.68971e-06
-2.16134e-07
5.69457e-06
4.31356e-08
5.70044e-06
3.47226e-09
5.71359e-06
1.07691e-07
5.707e-06
-9.86201e-08
5.70322e-06
-1.81471e-07
5.69215e-06
-1.47667e-07
5.6819e-06
-1.76862e-07
5.67868e-06
-1.06181e-07
5.67155e-06
-2.27087e-08
5.67048e-06
2.30721e-08
5.67628e-06
7.92704e-08
5.67946e-06
1.19872e-07
5.68132e-06
1.29845e-07
5.68543e-06
1.30871e-07
5.68969e-06
1.32533e-07
5.69273e-06
1.32556e-07
1.30665e-07
5.69583e-06
5.97781e-06
-2.1463e-08
5.9809e-06
-3.28177e-07
5.9641e-06
-1.99334e-07
5.96681e-06
4.04228e-08
5.97392e-06
-3.63639e-09
5.9861e-06
9.55121e-08
5.97923e-06
-9.17556e-08
5.97588e-06
-1.78115e-07
5.96497e-06
-1.3676e-07
5.95378e-06
-1.65672e-07
5.95123e-06
-1.03634e-07
5.94465e-06
-1.61224e-08
5.94211e-06
2.56128e-08
5.94784e-06
7.35394e-08
5.95205e-06
1.15663e-07
5.95375e-06
1.2814e-07
5.95726e-06
1.27362e-07
5.9618e-06
1.27996e-07
5.96534e-06
1.2901e-07
1.27363e-07
5.96865e-06
6.26438e-06
-1.03512e-08
6.26604e-06
-3.29842e-07
6.25162e-06
-1.84908e-07
6.25222e-06
3.98166e-08
6.26031e-06
-1.17198e-08
6.2719e-06
8.39189e-08
6.26438e-06
-8.42386e-08
6.26145e-06
-1.75186e-07
6.2511e-06
-1.26405e-07
6.23854e-06
-1.53111e-07
6.23657e-06
-1.01671e-07
6.23108e-06
-1.06255e-08
6.22714e-06
2.9548e-08
6.23219e-06
6.8486e-08
6.23752e-06
1.1034e-07
6.2395e-06
1.26157e-07
6.24235e-06
1.2451e-07
6.24688e-06
1.23469e-07
6.2509e-06
1.24994e-07
1.23804e-07
6.25445e-06
6.56478e-06
3.3443e-10
6.56474e-06
-3.29795e-07
6.55285e-06
-1.73025e-07
6.55146e-06
4.12088e-08
6.56018e-06
-2.04354e-08
6.57164e-06
7.24518e-08
6.56316e-06
-7.57523e-08
6.56042e-06
-1.72444e-07
6.55121e-06
-1.17195e-07
6.53695e-06
-1.38854e-07
6.53511e-06
-9.9827e-08
6.5314e-06
-6.92106e-09
6.52637e-06
3.45752e-08
6.53014e-06
6.4719e-08
6.53638e-06
1.04101e-07
6.53907e-06
1.23462e-07
6.54142e-06
1.22164e-07
6.54565e-06
1.19242e-07
6.55005e-06
1.20592e-07
1.20011e-07
6.55384e-06
6.8797e-06
1.04258e-08
6.87764e-06
-3.27736e-07
6.86842e-06
-1.63809e-07
6.86523e-06
4.44066e-08
6.87412e-06
-2.93328e-08
6.886e-06
6.05799e-08
6.87633e-06
-6.60831e-08
6.87332e-06
-1.69435e-07
6.86589e-06
-1.09766e-07
6.85002e-06
-1.22985e-07
6.8474e-06
-9.72062e-08
6.84596e-06
-5.47896e-09
6.8406e-06
3.99268e-08
6.84259e-06
6.27337e-08
6.84923e-06
9.74568e-08
6.85297e-06
1.19727e-07
6.85512e-06
1.20008e-07
6.85886e-06
1.15509e-07
6.8635e-06
1.1595e-07
1.16024e-07
6.86749e-06
7.20981e-06
1.97477e-08
7.20544e-06
-3.23364e-07
7.19898e-06
-1.57343e-07
7.19426e-06
4.91246e-08
7.2028e-06
-3.78715e-08
7.21559e-06
4.77907e-08
7.2047e-06
-5.52019e-08
7.20083e-06
-1.65558e-07
7.19566e-06
-1.04594e-07
7.17877e-06
-1.06099e-07
7.17428e-06
-9.27123e-08
7.17512e-06
-6.32191e-09
7.1704e-06
4.46472e-08
7.17052e-06
6.26089e-08
7.17687e-06
9.11133e-08
7.18171e-06
1.14882e-07
7.18407e-06
1.17653e-07
7.1873e-06
1.1228e-07
7.19194e-06
1.11308e-07
1.11819e-07
7.19614e-06
7.55585e-06
2.81211e-08
7.54888e-06
-3.16388e-07
7.54519e-06
-1.53652e-07
7.53935e-06
5.49643e-08
7.54687e-06
-4.53979e-08
7.56102e-06
3.36435e-08
7.54921e-06
-4.33876e-08
7.54364e-06
-1.59991e-07
7.54103e-06
-1.0199e-07
7.52401e-06
-8.90701e-08
7.51689e-06
-8.55995e-08
7.51938e-06
-8.80542e-09
7.51622e-06
4.78039e-08
7.51486e-06
6.39715e-08
7.52021e-06
8.57576e-08
7.52589e-06
1.09203e-07
7.52886e-06
1.14685e-07
7.53172e-06
1.09419e-07
7.53612e-06
1.06909e-07
1.07378e-07
7.54056e-06
7.91856e-06
3.53713e-08
7.90875e-06
-3.0658e-07
7.90778e-06
-1.52681e-07
7.90134e-06
6.14024e-08
7.90709e-06
-5.11409e-08
7.92284e-06
1.78953e-08
7.91077e-06
-3.13202e-08
7.90262e-06
-1.51847e-07
7.90238e-06
-1.01747e-07
7.88647e-06
-7.31576e-08
7.87647e-06
-7.55975e-08
7.8794e-06
-1.17437e-08
7.87849e-06
4.87145e-08
7.87638e-06
6.60838e-08
7.88025e-06
8.18875e-08
7.88631e-06
1.0315e-07
7.8901e-06
1.10888e-07
7.89286e-06
1.0666e-07
7.89692e-06
1.02853e-07
1.02794e-07
7.9015e-06
8.29872e-06
4.13325e-08
8.28594e-06
-2.93804e-07
8.2875e-06
-1.5424e-07
8.28109e-06
6.78117e-08
8.28428e-06
-5.43325e-08
8.30161e-06
5.71957e-10
8.29024e-06
-1.99528e-08
8.27888e-06
-1.40488e-07
8.28021e-06
-1.03072e-07
8.26671e-06
-5.96648e-08
8.25413e-06
-6.30169e-08
8.25622e-06
-1.38336e-08
8.25772e-06
4.72125e-08
8.25573e-06
6.80756e-08
8.25805e-06
7.95681e-08
8.2639e-06
9.73048e-08
8.26844e-06
1.06341e-07
8.27146e-06
1.03642e-07
8.27512e-06
9.91933e-08
9.81223e-08
8.27979e-06
8.69714e-06
4.58589e-08
8.68138e-06
-2.78046e-07
8.6851e-06
-1.57963e-07
8.67945e-06
7.34663e-08
8.67945e-06
-5.43398e-08
8.69795e-06
-1.79249e-08
8.68843e-06
-1.04297e-08
8.67365e-06
-1.2571e-07
8.67529e-06
-1.04714e-07
8.66518e-06
-4.95494e-08
8.65092e-06
-4.87597e-08
8.65108e-06
-1.39962e-08
8.65452e-06
4.37697e-08
8.65351e-06
6.90908e-08
8.65459e-06
7.84905e-08
8.65968e-06
9.2213e-08
8.6647e-06
1.01319e-07
8.66823e-06
1.0011e-07
8.67163e-06
9.5799e-08
9.35368e-08
8.67621e-06
9.11464e-06
4.88397e-08
9.09603e-06
-2.59438e-07
9.10138e-06
-1.63312e-07
9.09726e-06
7.75846e-08
9.09371e-06
-5.07858e-08
9.11255e-06
-3.67719e-08
9.10608e-06
-3.95131e-09
9.08811e-06
-1.07747e-07
9.0886e-06
-1.05197e-07
9.0823e-06
-4.32511e-08
9.06768e-06
-3.41433e-08
9.06519e-06
-1.15e-08
9.06973e-06
3.92223e-08
9.07035e-06
6.84693e-08
9.07071e-06
7.81329e-08
9.0747e-06
8.8228e-08
9.07984e-06
9.61802e-08
9.08391e-06
9.60327e-08
9.08734e-06
9.23702e-08
8.92416e-08
9.09164e-06
9.55209e-06
5.02091e-08
9.53093e-06
-2.38273e-07
9.5372e-06
-1.69584e-07
9.5354e-06
7.93809e-08
9.52822e-06
-4.36072e-08
9.54625e-06
-5.48003e-08
9.54366e-06
-1.35874e-09
9.52346e-06
-8.75472e-08
9.52141e-06
-1.03145e-07
9.51859e-06
-4.04365e-08
9.50499e-06
-2.05454e-08
9.49987e-06
-6.37529e-09
9.50441e-06
3.4684e-08
9.50685e-06
6.60263e-08
9.5072e-06
7.77884e-08
9.51012e-06
8.5303e-08
9.51484e-06
9.14608e-08
9.51934e-06
9.15358e-08
9.52304e-06
8.86648e-08
8.52279e-08
9.52706e-06
1.00104e-05
4.99584e-08
9.98711e-06
-2.14996e-07
9.99349e-06
-1.75968e-07
9.99467e-06
7.8208e-08
9.98418e-06
-3.31245e-08
1.00001e-05
-7.06844e-08
1.00017e-05
-2.99715e-09
9.98071e-06
-6.65476e-08
9.97514e-06
-9.75758e-08
9.97493e-06
-4.02271e-08
9.96348e-06
-9.09855e-09
9.95631e-06
7.92393e-10
9.95973e-06
3.12677e-08
9.96375e-06
6.20041e-08
9.96484e-06
7.67023e-08
9.96693e-06
8.32089e-08
9.97091e-06
8.7483e-08
9.97545e-06
8.69982e-08
9.97961e-06
8.44976e-08
8.13148e-08
9.98353e-06
1.04904e-05
4.8152e-08
1.04657e-05
-1.90207e-07
1.04713e-05
-1.81587e-07
1.04758e-05
7.36633e-08
1.04627e-05
-2.00292e-08
1.04751e-05
-8.30542e-08
1.04809e-05
-8.7892e-09
1.04607e-05
-4.63491e-08
1.04514e-05
-8.82916e-08
1.04524e-05
-4.12504e-08
1.04439e-05
-5.36484e-10
1.04354e-05
9.22465e-09
1.0437e-05
2.96684e-08
1.0442e-05
5.70155e-08
1.04444e-05
7.43722e-08
1.04461e-05
8.15023e-08
1.04493e-05
8.42568e-08
1.04535e-05
8.27778e-08
1.0458e-05
7.99777e-08
7.73209e-08
1.0462e-05
1.09932e-05
4.49211e-08
1.09676e-05
-1.64588e-07
1.09716e-05
-1.85597e-07
1.09797e-05
6.56315e-08
1.09649e-05
-5.3001e-09
1.09727e-05
-9.08518e-08
1.0982e-05
-1.80206e-08
1.09642e-05
-2.86107e-08
1.09516e-05
-7.56325e-08
1.09525e-05
-4.21316e-08
1.0947e-05
4.95093e-09
1.09382e-05
1.79513e-08
1.09377e-05
3.02133e-08
1.09428e-05
5.19091e-08
1.09465e-05
7.06623e-08
1.09484e-05
7.95944e-08
1.09511e-05
8.159e-08
1.09547e-05
7.91497e-08
1.09593e-05
7.54016e-08
7.30356e-08
1.09636e-05
1.15198e-05
4.04765e-08
1.14941e-05
-1.38914e-07
1.14958e-05
-1.87232e-07
1.15071e-05
5.43459e-08
1.1492e-05
9.80213e-09
1.14946e-05
-9.34788e-08
1.1506e-05
-2.94605e-08
1.1492e-05
-1.46388e-08
1.14768e-05
-6.03695e-08
1.14765e-05
-4.18197e-08
1.14738e-05
7.61189e-09
1.14657e-05
2.60951e-08
1.14631e-05
3.27563e-08
1.14674e-05
4.76117e-08
1.14723e-05
6.57793e-08
1.1475e-05
7.69327e-08
1.14773e-05
7.92786e-08
1.14803e-05
7.61455e-08
1.14845e-05
7.12044e-08
6.84799e-08
1.1489e-05
1.20712e-05
3.50958e-08
1.20462e-05
-1.13958e-07
1.20449e-05
-1.85889e-07
1.20589e-05
4.03499e-08
1.20448e-05
2.3894e-08
1.20421e-05
-9.07978e-08
1.20543e-05
-4.16168e-08
1.20449e-05
-5.25418e-09
1.20281e-05
-4.36017e-08
1.20258e-05
-3.95325e-08
1.20255e-05
7.97955e-09
1.20187e-05
3.28286e-08
1.20147e-05
3.68364e-08
1.20174e-05
4.48974e-08
1.20229e-05
6.0242e-08
1.20267e-05
7.31724e-08
1.2029e-05
7.70012e-08
1.20315e-05
7.36299e-08
1.20349e-05
6.77316e-08
6.39167e-08
1.20395e-05
1.26486e-05
2.9107e-08
1.26251e-05
-9.04743e-08
1.26204e-05
-1.81175e-07
1.26363e-05
2.44139e-08
1.26245e-05
3.57409e-08
1.26169e-05
-8.31977e-08
1.26282e-05
-5.29659e-08
1.26235e-05
-5.53561e-10
1.26066e-05
-2.66772e-08
1.2602e-05
-3.4905e-08
1.26032e-05
6.71746e-09
1.25985e-05
3.75704e-08
1.25935e-05
4.18505e-08
1.25944e-05
4.40002e-08
1.25998e-05
5.48651e-08
1.26046e-05
6.82846e-08
1.26074e-05
7.42484e-08
1.26095e-05
7.15279e-08
1.26123e-05
6.49026e-08
5.98206e-08
1.26164e-05
1.32532e-05
2.28736e-08
1.32318e-05
-6.91533e-08
1.32236e-05
-1.72958e-07
1.32406e-05
7.45834e-09
1.32319e-05
4.43831e-08
1.32204e-05
-7.16269e-08
1.32293e-05
-6.19326e-08
1.32289e-05
-1.55273e-10
1.32133e-05
-1.10045e-08
1.32062e-05
-2.78846e-08
1.32083e-05
4.62622e-09
1.32059e-05
3.99813e-08
1.32008e-05
4.70099e-08
1.32e-05
4.48065e-08
1.32044e-05
5.04043e-08
1.32101e-05
6.25985e-08
1.32139e-05
7.04351e-08
1.32159e-05
6.95626e-08
1.32181e-05
6.26754e-08
5.63412e-08
1.32216e-05
1.38863e-05
1.67508e-08
1.38677e-05
-5.0546e-08
1.38561e-05
-1.61395e-07
1.38731e-05
-9.47594e-09
1.38683e-05
4.91525e-08
1.38539e-05
-5.72052e-08
1.38593e-05
-6.73543e-08
1.38623e-05
-3.2146e-09
1.38492e-05
2.15553e-09
1.38401e-05
-1.87711e-08
1.3842e-05
2.67306e-09
1.38422e-05
3.98298e-08
1.38377e-05
5.1497e-08
1.38355e-05
4.6967e-08
1.38386e-05
4.73726e-08
1.38445e-05
5.66628e-08
1.38495e-05
6.54139e-08
1.38522e-05
6.6909e-08
1.38539e-05
6.09157e-08
5.36631e-08
1.38566e-05
1.45494e-05
1.10557e-08
1.45338e-05
-3.49915e-08
1.45195e-05
-1.47056e-07
1.45352e-05
-2.52135e-08
1.45345e-05
4.98507e-08
1.45187e-05
-4.13682e-08
1.45199e-05
-6.85635e-08
1.45252e-05
-8.53687e-09
1.45155e-05
1.18737e-08
1.45049e-05
-8.21457e-09
1.45058e-05
1.80382e-09
1.45083e-05
3.73685e-08
1.45054e-05
5.43331e-08
1.45023e-05
5.00911e-08
1.45038e-05
4.58208e-08
1.45093e-05
5.11799e-08
1.45151e-05
5.96174e-08
1.4519e-05
6.30812e-08
1.45207e-05
5.91368e-08
5.16194e-08
1.45228e-05
1.52439e-05
6.04783e-09
1.52315e-05
-2.26373e-08
1.52151e-05
-1.30671e-07
1.52287e-05
-3.87716e-08
1.52318e-05
4.67738e-08
1.5216e-05
-2.55642e-08
1.5213e-05
-6.55888e-08
1.52192e-05
-1.47013e-08
1.52133e-05
1.77638e-08
1.52023e-05
2.78034e-09
1.52013e-05
2.79806e-09
1.52054e-05
3.32847e-08
1.52049e-05
5.48065e-08
1.52016e-05
5.34161e-08
1.52017e-05
4.56628e-08
1.52062e-05
4.66822e-08
1.52123e-05
5.35482e-08
1.52173e-05
5.81132e-08
1.52196e-05
5.67743e-08
5.00534e-08
1.52212e-05
1.59715e-05
1.90643e-09
1.59623e-05
-1.342e-08
1.59447e-05
-1.13132e-07
1.59552e-05
-4.9301e-08
1.59615e-05
4.05084e-08
1.5947e-05
-1.10164e-08
1.59404e-05
-5.90721e-08
1.59461e-05
-2.03296e-08
1.59436e-05
2.01952e-08
1.59336e-05
1.28058e-08
1.59304e-05
6.06154e-09
1.59351e-05
2.85602e-08
1.59371e-05
5.2795e-08
1.59347e-05
5.57884e-08
1.59335e-05
4.68417e-08
1.59368e-05
4.34054e-08
1.59427e-05
4.76414e-08
1.59483e-05
5.25721e-08
1.59517e-05
5.33247e-08
4.85812e-08
1.59532e-05
1.67338e-05
-1.26933e-09
1.67274e-05
-7.07008e-09
1.67097e-05
-9.53552e-08
1.67167e-05
-5.63289e-08
1.67252e-05
3.20106e-08
1.6713e-05
1.20273e-09
1.67037e-05
-4.97839e-08
1.67078e-05
-2.44384e-08
1.67083e-05
1.96347e-08
1.67e-05
2.11056e-08
1.66951e-05
1.09861e-08
1.6699e-05
2.47126e-08
1.67033e-05
4.84916e-08
1.67027e-05
5.63538e-08
1.67008e-05
4.87701e-08
1.67026e-05
4.15878e-08
1.67076e-05
4.2609e-08
1.67136e-05
4.657e-08
1.67179e-05
4.90842e-08
4.65484e-08
1.67199e-05
1.75325e-05
-3.44899e-09
1.75287e-05
-3.21111e-09
1.75115e-05
-7.81348e-08
1.75149e-05
-5.97851e-08
1.75245e-05
2.24244e-08
1.75154e-05
1.03535e-08
1.75043e-05
-3.87432e-08
1.75062e-05
-2.63053e-08
1.7509e-05
1.68353e-08
1.75029e-05
2.71556e-08
1.74972e-05
1.67101e-08
1.74992e-05
2.26745e-08
1.75049e-05
4.28519e-08
1.75066e-05
5.45999e-08
1.7505e-05
5.0424e-08
1.75052e-05
4.1371e-08
1.75089e-05
3.88991e-08
1.75145e-05
4.10015e-08
1.75197e-05
4.39092e-08
4.39812e-08
1.75222e-05
1.83696e-05
-4.68377e-09
1.83677e-05
-1.35122e-09
1.83517e-05
-6.21441e-08
1.83518e-05
-5.98149e-08
1.83616e-05
1.26023e-08
1.83555e-05
1.6398e-08
1.83439e-05
-2.71384e-08
1.83432e-05
-2.56103e-08
1.83473e-05
1.27507e-08
1.83439e-05
3.05335e-08
1.83381e-05
2.25987e-08
1.83383e-05
2.23838e-08
1.83439e-05
3.73271e-08
1.83477e-05
5.08089e-08
1.83474e-05
5.06546e-08
1.83465e-05
4.23318e-08
1.83487e-05
3.66916e-08
1.8353e-05
3.66929e-08
1.83581e-05
3.87609e-08
4.01598e-08
1.8362e-05