/*--------------------------------*- C++ -*----------------------------------*\
| =========                 |                                                 |
| \\      /  F ield         | OpenFOAM: The Open Source CFD Toolbox           |
|  \\    /   O peration     | Version:  2106                                  |
|   \\  /    A nd           | Website:  www.openfoam.com                      |
|    \\/     M anipulation  |                                                 |
\*---------------------------------------------------------------------------*/
FoamFile
{
    version     2.0;
    format      ascii;
    arch        "LSB;label=32;scalar=64";
    class       surfaceScalarField;
    location    "0.635";
    object      phi;
}
// * * * * * * * * * * * * * * * * * * * * * * * * * * * * * * * * * * * * * //

dimensions      [0 3 -1 0 0 0 0];

oriented        oriented;

internalField   nonuniform List<scalar> 
19000
(
1.19228e-06
2.26402e-07
1.13063e-06
1.18504e-07
1.14195e-06
-8.65487e-07
1.20846e-06
3.45309e-07
1.20126e-06
-3.27295e-08
1.17234e-06
7.38095e-07
1.17172e-06
-3.02407e-07
1.17016e-06
2.77911e-07
1.17919e-06
-1.41722e-07
1.17971e-06
1.54056e-08
1.17988e-06
-1.84337e-07
1.17732e-06
1.01746e-07
1.18485e-06
1.32368e-08
1.17543e-06
5.74223e-08
1.18238e-06
2.41758e-07
1.16789e-06
4.9766e-08
1.17209e-06
9.90373e-08
1.15544e-06
3.30046e-09
1.15785e-06
1.2685e-07
-9.23513e-08
1.10451e-06
1.24639e-06
2.04277e-07
1.18837e-06
1.76521e-07
1.20233e-06
-8.79445e-07
1.26953e-06
2.78107e-07
1.26198e-06
-2.51771e-08
1.23762e-06
7.62453e-07
1.23503e-06
-2.99816e-07
1.23534e-06
2.77594e-07
1.24166e-06
-1.48034e-07
1.24401e-06
1.30467e-08
1.24112e-06
-1.81447e-07
1.2426e-06
1.00266e-07
1.24256e-06
1.32773e-08
1.24093e-06
5.90509e-08
1.23528e-06
2.4741e-07
1.23552e-06
4.95306e-08
1.2204e-06
1.14153e-07
1.2255e-06
-1.8006e-09
1.20115e-06
1.512e-07
-8.1384e-08
1.19019e-06
1.30091e-06
1.8615e-07
1.25324e-06
2.24196e-07
1.26525e-06
-8.91454e-07
1.33254e-06
2.10815e-07
1.32442e-06
-1.70629e-08
1.30816e-06
7.7872e-07
1.29815e-06
-2.89806e-07
1.3043e-06
2.71436e-07
1.30377e-06
-1.47498e-07
1.31077e-06
6.04081e-09
1.30219e-06
-1.72859e-07
1.30892e-06
9.35357e-08
1.3015e-06
2.06932e-08
1.30527e-06
5.52861e-08
1.29651e-06
2.56167e-07
1.29762e-06
4.84206e-08
1.28356e-06
1.28211e-07
1.2833e-06
-1.53617e-09
1.27233e-06
1.62162e-07
-5.90057e-08
1.24996e-06
1.35708e-06
1.73172e-07
1.32339e-06
2.57885e-07
1.33024e-06
-8.98302e-07
1.39333e-06
1.47727e-07
1.38643e-06
-1.0169e-08
1.37647e-06
7.88682e-07
1.35933e-06
-2.72659e-07
1.36851e-06
2.62255e-07
1.3637e-06
-1.42692e-07
1.37202e-06
-2.27725e-09
1.3623e-06
-1.63142e-07
1.3692e-06
8.66342e-08
1.36093e-06
2.89629e-08
1.36402e-06
5.21986e-08
1.35957e-06
2.60623e-07
1.35647e-06
5.15207e-08
1.34698e-06
1.37695e-07
1.34165e-06
3.79173e-09
1.33674e-06
1.67078e-07
-3.387e-08
1.3116e-06
1.416e-06
1.65525e-07
1.39633e-06
2.77554e-07
1.39684e-06
-8.98807e-07
1.45097e-06
9.3589e-08
1.44703e-06
-6.22234e-09
1.44073e-06
7.94979e-07
1.41974e-06
-2.51672e-07
1.42829e-06
2.53704e-07
1.42311e-06
-1.37507e-07
1.43017e-06
-9.34152e-09
1.42239e-06
-1.55361e-07
1.42739e-06
8.16387e-08
1.42041e-06
3.5944e-08
1.42181e-06
5.07962e-08
1.42049e-06
2.61944e-07
1.41575e-06
5.62603e-08
1.40841e-06
1.45038e-07
1.40139e-06
1.08095e-08
1.39895e-06
1.69521e-07
-9.18485e-09
1.37426e-06
1.47896e-06
1.62243e-07
1.47035e-06
2.86158e-07
1.46564e-06
-8.94088e-07
1.50767e-06
5.15585e-08
1.50699e-06
-5.54785e-09
1.50303e-06
7.9894e-07
1.48203e-06
-2.30671e-07
1.48844e-06
2.47295e-07
1.48486e-06
-1.33932e-07
1.49055e-06
-1.50312e-08
1.4846e-06
-1.49406e-07
1.4882e-06
7.80341e-08
1.48186e-06
4.22914e-08
1.48198e-06
5.06761e-08
1.48192e-06
2.62e-07
1.47741e-06
6.07706e-08
1.47173e-06
1.50718e-07
1.46395e-06
1.85886e-08
1.46397e-06
1.69507e-07
1.45206e-08
1.44026e-06
1.54681e-06
1.61649e-07
1.54536e-06
2.87606e-07
1.53759e-06
-8.8632e-07
1.56688e-06
2.22743e-08
1.56812e-06
-6.79216e-09
1.56667e-06
8.00391e-07
1.54816e-06
-2.12164e-07
1.55309e-06
2.42367e-07
1.551e-06
-1.3184e-07
1.55612e-06
-2.01544e-08
1.55083e-06
-1.44113e-07
1.55391e-06
7.49563e-08
1.54756e-06
4.86367e-08
1.54667e-06
5.15666e-08
1.54713e-06
2.61547e-07
1.54331e-06
6.45831e-08
1.53942e-06
1.54609e-07
1.53102e-06
2.69909e-08
1.53344e-06
1.67087e-07
3.69909e-08
1.51097e-06
1.61964e-06
1.62137e-07
1.62214e-06
2.85106e-07
1.61314e-06
-8.77316e-07
1.6313e-06
4.10851e-09
1.63247e-06
-7.95609e-09
1.63411e-06
7.98748e-07
1.61897e-06
-1.97022e-07
1.62383e-06
2.37507e-07
1.62226e-06
-1.30273e-07
1.62729e-06
-2.51804e-08
1.62185e-06
-1.38673e-07
1.62495e-06
7.18529e-08
1.61851e-06
5.50807e-08
1.617e-06
5.30756e-08
1.61778e-06
2.60762e-07
1.61446e-06
6.79046e-08
1.61235e-06
1.5672e-07
1.6032e-06
3.61437e-08
1.60764e-06
1.62643e-07
5.80478e-08
1.58658e-06
1.69704e-06
1.62673e-07
1.70151e-06
2.80631e-07
1.69207e-06
-8.67872e-07
1.702e-06
-5.82257e-09
1.70171e-06
-7.66866e-09
1.70661e-06
7.93849e-07
1.69454e-06
-1.84957e-07
1.70039e-06
2.31659e-07
1.69847e-06
-1.28355e-07
1.70343e-06
-3.01334e-08
1.69748e-06
-1.32728e-07
1.70093e-06
6.84014e-08
1.69454e-06
6.14793e-08
1.69292e-06
5.46935e-08
1.69416e-06
2.59524e-07
1.69089e-06
7.11745e-08
1.69046e-06
1.57143e-07
1.6804e-06
4.62009e-08
1.68625e-06
1.56794e-07
7.7495e-08
1.66681e-06
1.77859e-06
1.62809e-07
1.78407e-06
2.75152e-07
1.77407e-06
-8.57872e-07
1.77876e-06
-1.05186e-08
1.77679e-06
-5.70242e-09
1.78466e-06
7.85988e-07
1.77478e-06
-1.75082e-07
1.78199e-06
2.24453e-07
1.77916e-06
-1.25529e-07
1.78393e-06
-3.49034e-08
1.77733e-06
-1.26125e-07
1.78127e-06
6.44566e-08
1.77511e-06
6.76472e-08
1.77377e-06
5.60298e-08
1.77574e-06
2.57556e-07
1.77213e-06
7.47846e-08
1.77327e-06
1.56005e-07
1.7623e-06
5.71648e-08
1.76885e-06
1.50246e-07
9.50925e-08
1.75125e-06
1.86414e-06
1.62423e-07
1.87023e-06
2.69053e-07
1.8591e-06
-8.4674e-07
1.86093e-06
-1.23459e-08
1.8579e-06
-2.67312e-09
1.86832e-06
7.75568e-07
1.8596e-06
-1.66366e-07
1.86801e-06
2.16043e-07
1.86398e-06
-1.21496e-07
1.8685e-06
-3.9428e-08
1.86117e-06
-1.18793e-07
1.86559e-06
6.00409e-08
1.8598e-06
7.34345e-08
1.8589e-06
5.6935e-08
1.86189e-06
2.54566e-07
1.8577e-06
7.89708e-08
1.86024e-06
1.5346e-07
1.84859e-06
6.88208e-08
1.8551e-06
1.4373e-07
1.10515e-07
1.83968e-06
1.95376e-06
1.61504e-07
1.96037e-06
2.62437e-07
1.94749e-06
-8.33854e-07
1.94797e-06
-1.28226e-08
1.94474e-06
5.56422e-10
1.95741e-06
7.62891e-07
1.94897e-06
-1.5792e-07
1.95822e-06
2.06787e-07
1.95284e-06
-1.16115e-07
1.95713e-06
-4.37111e-08
1.94905e-06
-1.10713e-07
1.95378e-06
5.53022e-08
1.94848e-06
7.87351e-08
1.94794e-06
5.74816e-08
1.95216e-06
2.5034e-07
1.94731e-06
8.3824e-08
1.95106e-06
1.49708e-07
1.93909e-06
8.07955e-08
1.94489e-06
1.37927e-07
1.23413e-07
1.93199e-06
2.04761e-06
1.60081e-07
2.05476e-06
2.55288e-07
2.03972e-06
-8.18811e-07
2.03966e-06
-1.27609e-08
2.03689e-06
3.32346e-09
2.05163e-06
7.48146e-07
2.04285e-06
-1.4914e-07
2.05263e-06
1.97016e-07
2.04588e-06
-1.09371e-07
2.04996e-06
-4.77847e-08
2.04117e-06
-1.01928e-07
2.04602e-06
5.04529e-08
2.04129e-06
8.34683e-08
2.04088e-06
5.78856e-08
2.04645e-06
2.44771e-07
2.04095e-06
8.93259e-08
2.04563e-06
1.45031e-07
2.0338e-06
9.26193e-08
2.03833e-06
1.33404e-07
1.33521e-07
2.02822e-06
2.14587e-06
1.58213e-07
2.15358e-06
2.47572e-07
2.13628e-06
-8.01511e-07
2.13605e-06
-1.2525e-08
2.13404e-06
5.32809e-09
2.1507e-06
7.31489e-07
2.14128e-06
-1.39716e-07
2.15137e-06
1.86926e-07
2.14334e-06
-1.01345e-07
2.14723e-06
-5.1676e-08
2.13784e-06
-9.25402e-08
2.14258e-06
4.57163e-08
2.13849e-06
8.7555e-08
2.13796e-06
5.84181e-08
2.14485e-06
2.37877e-07
2.13882e-06
9.5356e-08
2.14405e-06
1.39808e-07
2.13286e-06
1.03804e-07
2.13579e-06
1.30475e-07
1.40838e-07
2.12847e-06
2.24872e-06
1.55981e-07
2.257e-06
2.39291e-07
2.23761e-06
-7.82119e-07
2.23733e-06
-1.22501e-08
2.23608e-06
6.58268e-09
2.25447e-06
7.13098e-07
2.24431e-06
-1.29559e-07
2.25465e-06
1.76586e-07
2.2455e-06
-9.21913e-08
2.24921e-06
-5.53908e-08
2.23938e-06
-8.27077e-08
2.2438e-06
4.12965e-08
2.24045e-06
9.09021e-08
2.23954e-06
5.93364e-08
2.24762e-06
2.29798e-07
2.24126e-06
1.01707e-07
2.24657e-06
1.34499e-07
2.23647e-06
1.13908e-07
2.23774e-06
1.29206e-07
1.45632e-07
2.23294e-06
2.35638e-06
1.53475e-07
2.36519e-06
2.30483e-07
2.34402e-06
-7.60951e-07
2.34375e-06
-1.19769e-08
2.34306e-06
7.27419e-09
2.36297e-06
6.9319e-07
2.35212e-06
-1.18715e-07
2.36271e-06
1.65993e-07
2.35263e-06
-8.2108e-08
2.35615e-06
-5.89094e-08
2.34607e-06
-7.26323e-08
2.35e-06
3.73707e-08
2.34749e-06
9.34118e-08
2.346e-06
6.08318e-08
2.35502e-06
2.20774e-07
2.3486e-06
1.08124e-07
2.35353e-06
1.29577e-07
2.34484e-06
1.22588e-07
2.34457e-06
1.29477e-07
1.48351e-07
2.34185e-06
2.4691e-06
1.50774e-07
2.47837e-06
2.21214e-07
2.45578e-06
-7.38369e-07
2.45552e-06
-1.17149e-08
2.45516e-06
7.63333e-09
2.47635e-06
6.72004e-07
2.46492e-06
-1.07286e-07
2.47579e-06
1.55126e-07
2.46499e-06
-7.13153e-08
2.46827e-06
-6.21895e-08
2.45818e-06
-6.25386e-08
2.46146e-06
3.40887e-08
2.45985e-06
9.50192e-08
2.4577e-06
6.29824e-08
2.46735e-06
2.11124e-07
2.46114e-06
1.14334e-07
2.46528e-06
1.25445e-07
2.4582e-06
1.29664e-07
2.45665e-06
1.31031e-07
1.49535e-07
2.45546e-06
2.58713e-06
1.47937e-07
2.59678e-06
2.11562e-07
2.57312e-06
-7.14704e-07
2.57287e-06
-1.14637e-08
2.57265e-06
7.85172e-09
2.59486e-06
6.49788e-07
2.58297e-06
-9.53918e-08
2.59411e-06
1.43987e-07
2.58283e-06
-6.00388e-08
2.58581e-06
-6.51672e-08
2.57593e-06
-5.26574e-08
2.57845e-06
3.15702e-08
2.57775e-06
9.57166e-08
2.57498e-06
6.57485e-08
2.58489e-06
2.01215e-07
2.57913e-06
1.20094e-07
2.58223e-06
1.22343e-07
2.57673e-06
1.35165e-07
2.57427e-06
1.33496e-07
1.49738e-07
2.57407e-06
2.71076e-06
1.45001e-07
2.72072e-06
2.0161e-07
2.69625e-06
-6.90235e-07
2.696e-06
-1.12132e-08
2.6958e-06
8.04653e-09
2.71881e-06
6.26781e-07
2.70657e-06
-8.31488e-08
2.71794e-06
1.32612e-07
2.7064e-06
-4.84951e-08
2.70899e-06
-6.77623e-08
2.69953e-06
-4.31985e-08
2.70121e-06
2.98925e-08
2.70137e-06
9.55558e-08
2.69812e-06
6.90053e-08
2.70792e-06
1.91414e-07
2.70279e-06
1.25217e-07
2.70478e-06
1.20353e-07
2.70067e-06
1.39276e-07
2.69772e-06
1.36444e-07
1.49445e-07
2.69802e-06
2.84029e-06
1.41984e-07
2.85045e-06
1.91443e-07
2.82541e-06
-6.65192e-07
2.82513e-06
-1.09376e-08
2.82492e-06
8.25935e-09
2.8485e-06
6.03198e-07
2.83602e-06
-7.06696e-08
2.84756e-06
1.21075e-07
2.83595e-06
-3.688e-08
2.83807e-06
-6.98849e-08
2.8292e-06
-3.43317e-08
2.83002e-06
2.90798e-08
2.83093e-06
9.46431e-08
2.82735e-06
7.25887e-08
2.83674e-06
1.82018e-07
2.83235e-06
1.2961e-07
2.83327e-06
1.1943e-07
2.83031e-06
1.42242e-07
2.82726e-06
1.39494e-07
1.49002e-07
2.8277e-06
2.97599e-06
1.38889e-07
2.98628e-06
1.8115e-07
2.96086e-06
-6.39767e-07
2.96051e-06
-1.05876e-08
2.9603e-06
8.47041e-09
2.98427e-06
5.79226e-07
2.97166e-06
-5.80611e-08
2.98327e-06
1.09466e-07
2.97175e-06
-2.5362e-08
2.97331e-06
-7.14478e-08
2.96515e-06
-2.61708e-08
2.96513e-06
2.91013e-08
2.96666e-06
9.31181e-08
2.96291e-06
7.63372e-08
2.97169e-06
1.73234e-07
2.96803e-06
1.33268e-07
2.96802e-06
1.1944e-07
2.96596e-06
1.44307e-07
2.9631e-06
1.42356e-07
1.48594e-07
2.96351e-06
3.11819e-06
1.35706e-07
3.12852e-06
1.70819e-07
3.10288e-06
-6.14132e-07
3.10238e-06
-1.00877e-08
3.10223e-06
8.62212e-09
3.12644e-06
5.55024e-07
3.1138e-06
-4.5422e-08
3.12538e-06
9.78846e-08
3.11409e-06
-1.40767e-08
3.11503e-06
-7.23817e-08
3.10762e-06
-1.87682e-08
3.10684e-06
2.98821e-08
3.10883e-06
9.11314e-08
3.10505e-06
8.01139e-08
3.11309e-06
1.65201e-07
3.11014e-06
1.36217e-07
3.10934e-06
1.20233e-07
3.10798e-06
1.45672e-07
3.10548e-06
1.44855e-07
1.48249e-07
3.10583e-06
3.26719e-06
1.32423e-07
3.27747e-06
1.60544e-07
3.25179e-06
-5.88458e-07
3.25105e-06
-9.33958e-09
3.25103e-06
8.64093e-09
3.27533e-06
5.30717e-07
3.26275e-06
-3.2836e-08
3.27422e-06
8.64151e-08
3.26327e-06
-3.12709e-09
3.26353e-06
-7.26407e-08
3.25689e-06
-1.21351e-08
3.25543e-06
3.13413e-08
3.25776e-06
8.88094e-08
3.25405e-06
8.38249e-08
3.26123e-06
1.5802e-07
3.25898e-06
1.38462e-07
3.25753e-06
1.21689e-07
3.25671e-06
1.46488e-07
3.25465e-06
1.46916e-07
1.47893e-07
3.255e-06
3.42334e-06
1.29019e-07
3.43346e-06
1.50418e-07
3.40792e-06
-5.62915e-07
3.40681e-06
-8.23308e-09
3.40699e-06
8.45874e-09
3.43131e-06
5.06403e-07
3.41884e-06
-2.03642e-08
3.43013e-06
7.51217e-08
3.41959e-06
7.41377e-09
3.41915e-06
-7.21991e-08
3.41328e-06
-6.26647e-09
3.4112e-06
3.34153e-08
3.41376e-06
8.62526e-08
3.41018e-06
8.74023e-08
3.41641e-06
1.51798e-07
3.41489e-06
1.39976e-07
3.41291e-06
1.23666e-07
3.4125e-06
1.46905e-07
3.41088e-06
1.48533e-07
1.47419e-07
3.41136e-06
3.58696e-06
1.25475e-07
3.59683e-06
1.40545e-07
3.5716e-06
-5.37684e-07
3.57003e-06
-6.66069e-09
3.57046e-06
8.02849e-09
3.59471e-06
4.82148e-07
3.58239e-06
-8.03907e-09
3.59347e-06
6.40405e-08
3.58339e-06
1.74932e-08
3.58222e-06
-7.10344e-08
3.57713e-06
-1.17225e-09
3.57446e-06
3.6086e-08
3.57718e-06
8.35277e-08
3.57378e-06
9.08062e-08
3.57896e-06
1.4662e-07
3.57816e-06
1.40774e-07
3.57588e-06
1.25948e-07
3.5757e-06
1.47081e-07
3.57451e-06
1.49724e-07
1.46767e-07
3.57516e-06
3.75841e-06
1.21768e-07
3.76793e-06
1.31031e-07
3.74319e-06
-5.12952e-07
3.74106e-06
-4.53092e-09
3.74176e-06
7.3354e-09
3.76591e-06
4.5799e-07
3.75374e-06
4.13977e-09
3.7646e-06
5.31805e-08
3.75503e-06
2.70618e-08
3.75309e-06
-6.90971e-08
3.74883e-06
3.08756e-09
3.74553e-06
3.93876e-08
3.74836e-06
8.06987e-08
3.74518e-06
9.39856e-08
3.74922e-06
1.42576e-07
3.74908e-06
1.40917e-07
3.74677e-06
1.28256e-07
3.74671e-06
1.47145e-07
3.74591e-06
1.50526e-07
1.45967e-07
3.74671e-06
3.93808e-06
1.17879e-07
3.94712e-06
1.21985e-07
3.92307e-06
-4.889e-07
3.92032e-06
-1.77527e-09
3.92125e-06
6.40323e-09
3.94531e-06
4.33928e-07
3.93324e-06
1.62093e-08
3.94388e-06
4.25371e-08
3.9349e-06
3.60454e-08
3.93208e-06
-6.62773e-08
3.92878e-06
6.3839e-09
3.92478e-06
4.33924e-08
3.92761e-06
7.78735e-08
3.92478e-06
9.68115e-08
3.9276e-06
1.39755e-07
3.92797e-06
1.4055e-07
3.92594e-06
1.30285e-07
3.92593e-06
1.47157e-07
3.92548e-06
1.50971e-07
1.45118e-07
3.92633e-06
4.12634e-06
1.13789e-07
4.13481e-06
1.13514e-07
4.11161e-06
-4.65695e-07
4.1082e-06
1.63495e-09
4.1093e-06
5.30022e-09
4.13331e-06
4.09918e-07
4.12128e-06
2.82408e-08
4.13171e-06
3.21009e-08
4.12343e-06
4.4329e-08
4.11955e-06
-6.23923e-08
4.11739e-06
8.54342e-09
4.11263e-06
4.81535e-08
4.11524e-06
7.52603e-08
4.11297e-06
9.90822e-08
4.1146e-06
1.38122e-07
4.11521e-06
1.3994e-07
4.11371e-06
1.31785e-07
4.11377e-06
1.47094e-07
4.11365e-06
1.51099e-07
1.44315e-07
4.11445e-06
4.32361e-06
1.09481e-07
4.33141e-06
1.05714e-07
4.30918e-06
-4.43468e-07
4.30515e-06
5.67152e-09
4.3063e-06
4.14618e-09
4.33034e-06
3.85882e-07
4.31825e-06
4.03234e-08
4.32846e-06
2.18914e-08
4.32106e-06
5.17287e-08
4.31587e-06
-5.72001e-08
4.315e-06
9.41056e-09
4.30952e-06
5.3638e-08
4.31157e-06
7.32062e-08
4.31009e-06
1.00566e-07
4.31073e-06
1.37485e-07
4.31129e-06
1.39377e-07
4.31043e-06
1.32645e-07
4.31067e-06
1.46852e-07
4.31083e-06
1.50947e-07
1.436e-07
4.31154e-06
4.53031e-06
1.04948e-07
4.53736e-06
9.86628e-08
4.51619e-06
-4.22303e-07
4.51163e-06
1.02359e-08
4.51266e-06
3.11494e-09
4.53682e-06
3.61717e-07
4.52462e-06
5.25317e-08
4.53451e-06
1.19969e-08
4.52825e-06
5.79844e-08
4.52151e-06
-5.04557e-08
4.52193e-06
8.99419e-09
4.51601e-06
5.95587e-08
4.517e-06
7.22136e-08
4.51647e-06
1.01091e-07
4.51648e-06
1.37481e-07
4.51674e-06
1.39111e-07
4.51647e-06
1.32919e-07
4.51705e-06
1.46274e-07
4.51744e-06
1.50551e-07
1.4294e-07
4.5181e-06
4.74687e-06
1.00189e-07
4.75313e-06
9.24102e-08
4.73304e-06
-4.0222e-07
4.72813e-06
1.51457e-08
4.72882e-06
2.43301e-09
4.75322e-06
3.37311e-07
4.74085e-06
6.49015e-08
4.75024e-06
2.60339e-09
4.74546e-06
6.27732e-08
4.73698e-06
-4.1978e-08
4.73845e-06
7.52159e-09
4.73261e-06
6.54026e-08
4.73204e-06
7.27854e-08
4.73244e-06
1.00689e-07
4.73231e-06
1.37603e-07
4.73214e-06
1.39288e-07
4.73226e-06
1.32794e-07
4.73331e-06
1.45229e-07
4.73396e-06
1.49903e-07
1.42289e-07
4.73461e-06
4.97377e-06
9.52152e-08
4.97922e-06
8.69658e-08
4.96016e-06
-3.83167e-07
4.95518e-06
2.01317e-08
4.95524e-06
2.37226e-09
4.97998e-06
3.12572e-07
4.9675e-06
7.73744e-08
4.97607e-06
-5.96549e-09
4.9731e-06
6.57465e-08
4.96286e-06
-3.1735e-08
4.96491e-06
5.47089e-09
4.95977e-06
7.05434e-08
4.95737e-06
7.51842e-08
4.95838e-06
9.96779e-08
4.95864e-06
1.3734e-07
4.95806e-06
1.39869e-07
4.95831e-06
1.3255e-07
4.95988e-06
1.43652e-07
4.96085e-06
1.48936e-07
1.41612e-07
4.96153e-06
5.21148e-06
9.00508e-08
5.21616e-06
8.22915e-08
5.198e-06
-3.65009e-07
5.1933e-06
2.48283e-08
5.19243e-06
3.2455e-09
5.21755e-06
2.8745e-07
5.20514e-06
8.97825e-08
5.21243e-06
-1.32556e-08
5.21161e-06
6.65642e-08
5.19976e-06
-1.98862e-08
5.2017e-06
3.53179e-09
5.19785e-06
7.4397e-08
5.19375e-06
7.92824e-08
5.19479e-06
9.86361e-08
5.19583e-06
1.363e-07
5.19508e-06
1.40624e-07
5.19517e-06
1.32456e-07
5.19721e-06
1.41616e-07
5.19862e-06
1.47527e-07
1.40883e-07
5.19935e-06
5.4605e-06
8.4735e-08
5.4645e-06
7.82971e-08
5.44702e-06
-3.47527e-07
5.44307e-06
2.87783e-08
5.44093e-06
5.3873e-09
5.4664e-06
2.61972e-07
5.45436e-06
1.01828e-07
5.45982e-06
-1.87175e-08
5.46138e-06
6.50002e-08
5.44835e-06
-6.85202e-09
5.44939e-06
2.48947e-09
5.44718e-06
7.66082e-08
5.44184e-06
8.46232e-08
5.44236e-06
9.81181e-08
5.4443e-06
1.34357e-07
5.44369e-06
1.41235e-07
5.44349e-06
1.32659e-07
5.44577e-06
1.39329e-07
5.44774e-06
1.45559e-07
1.40023e-07
5.4486e-06
5.72137e-06
7.9322e-08
5.72483e-06
7.48416e-08
5.70772e-06
-3.30417e-07
5.70505e-06
3.14498e-08
5.70132e-06
9.11318e-09
5.727e-06
2.36287e-07
5.71574e-06
1.13092e-07
5.7188e-06
-2.178e-08
5.72276e-06
6.10459e-08
5.70919e-06
6.71433e-09
5.70862e-06
3.05697e-09
5.70813e-06
7.70979e-08
5.70222e-06
9.05363e-08
5.70182e-06
9.85238e-08
5.70452e-06
1.31648e-07
5.70439e-06
1.41374e-07
5.70389e-06
1.33153e-07
5.70614e-06
1.37079e-07
5.7087e-06
1.43005e-07
1.38889e-07
5.70983e-06
5.99463e-06
7.38827e-08
5.99774e-06
7.17356e-08
5.98062e-06
-3.13296e-07
5.97976e-06
3.2302e-08
5.97425e-06
1.46288e-08
5.99981e-06
2.10727e-07
5.98991e-06
1.22988e-07
5.99008e-06
-2.1945e-08
5.9961e-06
5.50198e-08
5.98285e-06
1.99689e-08
5.98016e-06
5.74917e-09
5.9812e-06
7.60537e-08
5.97544e-06
9.62952e-08
5.97393e-06
1.00034e-07
5.97706e-06
1.28516e-07
5.97764e-06
1.40795e-07
5.977e-06
1.33794e-07
5.97897e-06
1.35109e-07
5.98199e-06
1.39989e-07
1.37294e-07
5.98358e-06
6.28087e-06
6.85019e-08
6.28384e-06
6.87636e-08
6.26627e-06
-2.95727e-07
6.26768e-06
3.08943e-08
6.26042e-06
2.18893e-08
6.28533e-06
1.85816e-07
6.27747e-06
1.30847e-07
6.27446e-06
-1.89284e-08
6.2819e-06
4.75716e-08
6.26976e-06
3.21147e-08
6.26486e-06
1.06488e-08
6.26684e-06
7.40668e-08
6.26196e-06
1.01181e-07
6.25942e-06
1.02569e-07
6.26256e-06
1.25378e-07
6.26398e-06
1.39373e-07
6.26342e-06
1.34359e-07
6.26497e-06
1.33562e-07
6.2682e-06
1.36754e-07
1.35097e-07
6.2704e-06
6.58069e-06
6.32764e-08
6.58376e-06
6.57018e-08
6.56532e-06
-2.77289e-07
6.56916e-06
2.70566e-08
6.56063e-06
3.04149e-08
6.58417e-06
1.62274e-07
6.57894e-06
1.36076e-07
6.57279e-06
-1.2773e-08
6.58073e-06
3.96311e-08
6.57036e-06
4.24788e-08
6.56351e-06
1.75054e-08
6.56584e-06
7.17392e-08
6.56218e-06
1.04839e-07
6.55895e-06
1.05797e-07
6.56172e-06
1.22605e-07
6.56397e-06
1.37126e-07
6.56374e-06
1.34593e-07
6.56485e-06
1.3245e-07
6.56801e-06
1.33594e-07
1.32275e-07
6.57083e-06
6.89476e-06
5.83046e-08
6.8981e-06
6.23606e-08
6.87858e-06
-2.57768e-07
6.88461e-06
2.10275e-08
6.87569e-06
3.93369e-08
6.89695e-06
1.41016e-07
6.89471e-06
1.38309e-07
6.88595e-06
-4.01035e-09
6.89329e-06
3.22898e-08
6.88514e-06
5.06273e-08
6.87693e-06
2.57179e-08
6.87897e-06
6.97041e-08
6.87667e-06
1.07136e-07
6.87312e-06
1.09351e-07
6.87529e-06
1.20429e-07
6.8782e-06
1.34213e-07
6.87854e-06
1.34256e-07
6.87933e-06
1.3166e-07
6.88215e-06
1.30773e-07
1.28963e-07
6.88547e-06
7.22376e-06
5.36853e-08
7.22751e-06
5.86038e-08
7.20694e-06
-2.37198e-07
7.21459e-06
1.33788e-08
7.20638e-06
4.75487e-08
7.22447e-06
1.22926e-07
7.22515e-06
1.37633e-07
7.21476e-06
6.37997e-09
7.22046e-06
2.65835e-08
7.21466e-06
5.64298e-08
7.20582e-06
3.4556e-08
7.20715e-06
6.83779e-08
7.2061e-06
1.08181e-07
7.20255e-06
1.12907e-07
7.20401e-06
1.18969e-07
7.20736e-06
1.30855e-07
7.20844e-06
1.33181e-07
7.20913e-06
1.30971e-07
7.21145e-06
1.28454e-07
1.25452e-07
7.21496e-06
7.5684e-06
4.9509e-08
7.57267e-06
5.43335e-08
7.55126e-06
-2.15782e-07
7.55973e-06
4.90974e-09
7.55336e-06
5.39129e-08
7.56766e-06
1.08622e-07
7.57073e-06
1.34564e-07
7.55985e-06
1.72647e-08
7.56336e-06
2.30681e-08
7.55946e-06
6.033e-08
7.55069e-06
4.33298e-08
7.55124e-06
6.78242e-08
7.55124e-06
1.08188e-07
7.54792e-06
1.16225e-07
7.54864e-06
1.18252e-07
7.55216e-06
1.27331e-07
7.55405e-06
1.31297e-07
7.55491e-06
1.3011e-07
7.55673e-06
1.2663e-07
1.22126e-07
7.56006e-06
7.92947e-06
4.58544e-08
7.93435e-06
4.94532e-08
7.91238e-06
-1.93815e-07
7.92073e-06
-3.43948e-09
7.91712e-06
5.75175e-08
7.92754e-06
9.82034e-08
7.93217e-06
1.29932e-07
7.92179e-06
2.76507e-08
7.92299e-06
2.18621e-08
7.92037e-06
6.29585e-08
7.91206e-06
5.16358e-08
7.91197e-06
6.79121e-08
7.91286e-06
1.07299e-07
7.90997e-06
1.19115e-07
7.90996e-06
1.18264e-07
7.9134e-06
1.23895e-07
7.91605e-06
1.28643e-07
7.91732e-06
1.28843e-07
7.91886e-06
1.25085e-07
1.19325e-07
7.92166e-06
8.30776e-06
4.27771e-08
8.31331e-06
4.39009e-08
8.29118e-06
-1.71688e-07
8.29837e-06
-1.06235e-08
8.29808e-06
5.78004e-08
8.30517e-06
9.11201e-08
8.31022e-06
1.24877e-07
8.30104e-06
3.68338e-08
8.30031e-06
2.25945e-08
8.29829e-06
6.49747e-08
8.29054e-06
5.93831e-08
8.29e-06
6.84606e-08
8.29177e-06
1.05524e-07
8.2895e-06
1.21389e-07
8.28881e-06
1.18945e-07
8.2919e-06
1.20806e-07
8.29519e-06
1.25352e-07
8.29701e-06
1.2703e-07
8.29858e-06
1.2351e-07
1.17108e-07
8.3008e-06
8.70413e-06
4.03101e-08
8.71039e-06
3.76447e-08
8.68849e-06
-1.49793e-07
8.69361e-06
-1.57429e-08
8.69669e-06
5.47203e-08
8.7016e-06
8.62137e-08
8.70583e-06
1.20638e-07
8.69808e-06
4.45873e-08
8.69623e-06
2.4446e-08
8.6943e-06
6.69031e-08
8.68702e-06
6.66693e-08
8.68602e-06
6.94545e-08
8.68866e-06
1.02889e-07
8.68727e-06
1.22771e-07
8.68608e-06
1.20136e-07
8.68857e-06
1.18322e-07
8.6923e-06
1.21619e-07
8.69472e-06
1.2461e-07
8.69654e-06
1.21688e-07
1.1521e-07
8.69844e-06
9.11948e-06
3.8446e-08
9.12634e-06
3.07916e-08
9.10516e-06
-1.28616e-07
9.10765e-06
-1.82303e-08
9.11355e-06
4.8819e-08
9.11769e-06
8.20752e-08
9.12029e-06
1.18033e-07
9.11356e-06
5.1318e-08
9.11136e-06
2.66494e-08
9.10955e-06
6.87139e-08
9.10252e-06
7.36954e-08
9.10088e-06
7.10974e-08
9.10423e-06
9.95368e-08
9.10409e-06
1.2291e-07
9.10266e-06
1.21566e-07
9.10435e-06
1.16632e-07
9.10826e-06
1.17713e-07
9.11133e-06
1.21541e-07
9.11344e-06
1.19575e-07
1.13241e-07
9.11541e-06
9.55477e-06
3.71371e-08
9.56202e-06
2.35437e-08
9.54205e-06
-1.08646e-07
9.54172e-06
-1.79002e-08
9.54941e-06
4.11295e-08
9.55413e-06
7.73519e-08
9.55489e-06
1.1727e-07
9.54837e-06
5.78442e-08
9.54633e-06
2.86819e-08
9.545e-06
7.00454e-08
9.53815e-06
8.05491e-08
9.53555e-06
7.36956e-08
9.53933e-06
9.57544e-08
9.54067e-06
1.21571e-07
9.53941e-06
1.22824e-07
9.54027e-06
1.15772e-07
9.54399e-06
1.14e-07
9.54773e-06
1.17796e-07
9.55012e-06
1.17187e-07
1.10975e-07
9.55239e-06
1.0011e-05
3.629e-08
1.00183e-05
1.62239e-08
1.00001e-05
-9.04001e-08
9.99701e-06
-1.48554e-08
1.00052e-05
3.2908e-08
1.00115e-05
7.10396e-08
1.0011e-05
1.17844e-07
1.00037e-05
6.50773e-08
1.00018e-05
3.05845e-08
1.00015e-05
7.04263e-08
9.99507e-06
8.69313e-08
9.99127e-06
7.74958e-08
9.99492e-06
9.21064e-08
9.99775e-06
1.18737e-07
9.99718e-06
1.23393e-07
9.99739e-06
1.15564e-07
1.00005e-05
1.10871e-07
1.00048e-05
1.13487e-07
1.00076e-05
1.14402e-07
1.0848e-07
1.00101e-05
1.04892e-05
3.57642e-08
1.04961e-05
9.2666e-09
1.04802e-05
-7.44302e-08
1.04746e-05
-9.34508e-09
1.04822e-05
2.53681e-08
1.04904e-05
6.27916e-08
1.04897e-05
1.18551e-07
1.04811e-05
7.3682e-08
1.04788e-05
3.29047e-08
1.04797e-05
6.95302e-08
1.04742e-05
9.23894e-08
1.04693e-05
8.23927e-08
1.04721e-05
8.93048e-08
1.04762e-05
1.14646e-07
1.04768e-05
1.22858e-07
1.04767e-05
1.15595e-07
1.0479e-05
1.0857e-07
1.04835e-05
1.0898e-07
1.0487e-05
1.1096e-07
1.05939e-07
1.04895e-05
1.09904e-05
3.53895e-08
1.09965e-05
3.11903e-09
1.09833e-05
-6.11621e-08
1.09758e-05
-1.84635e-09
1.09815e-05
1.96049e-08
1.09915e-05
5.27788e-08
1.0992e-05
1.18088e-07
1.09819e-05
8.37461e-08
1.09784e-05
3.64128e-08
1.09806e-05
6.73894e-08
1.09766e-05
9.63924e-08
1.0971e-05
8.80175e-08
1.09723e-05
8.79316e-08
1.09772e-05
1.09787e-07
1.0979e-05
1.21043e-07
1.09792e-05
1.15371e-07
1.09808e-05
1.0702e-07
1.0985e-05
1.04784e-07
1.09891e-05
1.06785e-07
1.03272e-07
1.09918e-05
1.15158e-05
3.49873e-08
1.15207e-05
-1.82364e-09
1.15103e-05
-5.07631e-08
1.15016e-05
6.9059e-09
1.15047e-05
1.64432e-08
1.15159e-05
4.16175e-08
1.15185e-05
1.15456e-07
1.15076e-05
9.46348e-08
1.15022e-05
4.18829e-08
1.1505e-05
6.45574e-08
1.15031e-05
9.83252e-08
1.14972e-05
9.39123e-08
1.1497e-05
8.81275e-08
1.15018e-05
1.04913e-07
1.15049e-05
1.17987e-07
1.15057e-05
1.14537e-07
1.15069e-05
1.05849e-07
1.15104e-05
1.01321e-07
1.1515e-05
1.02119e-07
1.00207e-07
1.15181e-05
1.20664e-05
3.43794e-08
1.20698e-05
-5.20668e-09
1.20622e-05
-4.31867e-08
1.20531e-05
1.60394e-08
1.20532e-05
1.63411e-08
1.20645e-05
3.03235e-08
1.207e-05
1.09992e-07
1.20593e-05
1.05299e-07
1.20515e-05
4.97267e-08
1.20542e-05
6.18447e-08
1.20544e-05
9.81074e-08
1.20491e-05
9.92403e-08
1.20474e-05
8.98243e-08
1.20516e-05
1.00672e-07
1.20556e-05
1.13974e-07
1.20572e-05
1.12914e-07
1.20584e-05
1.04641e-07
1.20611e-05
9.8639e-08
1.20657e-05
9.75054e-08
9.64938e-08
1.20695e-05
1.26436e-05
3.34104e-08
1.26451e-05
-6.78282e-09
1.26401e-05
-3.814e-08
1.26315e-05
2.46411e-08
1.26285e-05
1.9287e-08
1.26387e-05
2.01734e-08
1.26471e-05
1.01541e-07
1.2638e-05
1.14486e-07
1.26279e-05
5.97572e-08
1.26295e-05
6.02398e-08
1.26316e-05
9.59938e-08
1.26277e-05
1.03207e-07
1.26248e-05
9.26846e-08
1.26279e-05
9.75422e-08
1.26325e-05
1.09452e-07
1.26349e-05
1.10465e-07
1.26364e-05
1.03129e-07
1.26386e-05
9.64388e-08
1.26427e-05
9.34077e-08
9.21918e-08
1.2647e-05
1.32484e-05
3.19765e-08
1.32481e-05
-6.49766e-09
1.3245e-05
-3.50875e-08
1.32378e-05
3.18466e-08
1.32322e-05
2.49073e-08
1.324e-05
1.23727e-08
1.3251e-05
9.05743e-08
1.32446e-05
1.20808e-07
1.3233e-05
7.13792e-08
1.32326e-05
6.0714e-08
1.32361e-05
9.24335e-08
1.32339e-05
1.05378e-07
1.32306e-05
9.60188e-08
1.32324e-05
9.57742e-08
1.32369e-05
1.04916e-07
1.32401e-05
1.07306e-07
1.3242e-05
1.01167e-07
1.32442e-05
9.43175e-08
1.32476e-05
8.99788e-08
8.7702e-08
1.32521e-05
1.38821e-05
3.00441e-08
1.38801e-05
-4.52438e-09
1.38783e-05
-3.32794e-08
1.38732e-05
3.69723e-08
1.38656e-05
3.24562e-08
1.387e-05
7.99271e-09
1.38827e-05
7.79052e-08
1.38802e-05
1.23308e-07
1.38679e-05
8.36216e-08
1.38651e-05
6.35983e-08
1.38691e-05
8.83759e-08
1.38689e-05
1.05555e-07
1.38659e-05
9.90957e-08
1.38664e-05
9.52319e-08
1.38705e-05
1.00873e-07
1.38741e-05
1.03625e-07
1.38765e-05
9.87543e-08
1.38789e-05
9.19621e-08
1.38819e-05
8.69824e-08
8.35066e-08
1.38861e-05
1.45461e-05
2.76522e-08
1.45427e-05
-1.19909e-09
1.45414e-05
-3.19119e-08
1.45387e-05
3.96649e-08
1.45302e-05
4.09078e-08
1.45306e-05
7.58516e-09
1.45438e-05
6.46858e-08
1.45454e-05
1.21784e-07
1.45338e-05
9.51627e-08
1.45287e-05
6.86778e-08
1.45323e-05
8.48656e-08
1.45339e-05
1.03872e-07
1.45318e-05
1.01281e-07
1.45315e-05
9.55343e-08
1.45347e-05
9.76087e-08
1.45386e-05
9.97117e-08
1.45414e-05
9.59384e-08
1.4544e-05
8.93816e-08
1.4547e-05
8.40401e-08
7.97751e-08
1.45507e-05
1.52416e-05
2.49148e-08
1.52374e-05
3.01502e-09
1.52357e-05
-3.02372e-08
1.52355e-05
3.98958e-08
1.52271e-05
4.92579e-08
1.52238e-05
1.09674e-08
1.5236e-05
5.24512e-08
1.52413e-05
1.16515e-07
1.52319e-05
1.0458e-07
1.5225e-05
7.55355e-08
1.52273e-05
8.25607e-08
1.52303e-05
1.00845e-07
1.52295e-05
1.0211e-07
1.52289e-05
9.61739e-08
1.52313e-05
9.51669e-08
1.52351e-05
9.58701e-08
1.52383e-05
9.27716e-08
1.5241e-05
8.6662e-08
1.5244e-05
8.1041e-08
7.63344e-08
1.52475e-05
1.59702e-05
2.1997e-08
1.59657e-05
7.59769e-09
1.59631e-05
-2.76941e-08
1.59649e-05
3.80849e-08
1.59577e-05
5.64989e-08
1.59513e-05
1.73712e-08
1.5961e-05
4.27849e-08
1.59693e-05
1.08214e-07
1.5963e-05
1.10826e-07
1.59552e-05
8.33249e-08
1.5956e-05
8.17884e-08
1.59597e-05
9.71513e-08
1.59603e-05
1.01475e-07
1.596e-05
9.65054e-08
1.59618e-05
9.33896e-08
1.59653e-05
9.23022e-08
1.59688e-05
8.93444e-08
1.59716e-05
8.38125e-08
1.59746e-05
7.80554e-08
7.30253e-08
1.59779e-05
1.67335e-05
1.90894e-08
1.6729e-05
1.20636e-08
1.67254e-05
-2.40156e-08
1.67284e-05
3.50332e-08
1.67232e-05
6.17572e-08
1.67147e-05
2.58317e-08
1.67208e-05
3.6721e-08
1.67311e-05
9.79063e-08
1.67284e-05
1.13521e-07
1.67209e-05
9.07515e-08
1.672e-05
8.26931e-08
1.67238e-05
9.34031e-08
1.67257e-05
9.95596e-08
1.67261e-05
9.61362e-08
1.67276e-05
9.18652e-08
1.67308e-05
8.91332e-08
1.67343e-05
8.57893e-08
1.67374e-05
8.07421e-08
1.67402e-05
7.52021e-08
6.98283e-08
1.67434e-05
1.75331e-05
1.6359e-08
1.75291e-05
1.60063e-08
1.75243e-05
-1.91277e-08
1.75278e-05
3.14958e-08
1.75248e-05
6.47778e-08
1.75155e-05
3.50606e-08
1.75178e-05
3.44313e-08
1.75286e-05
8.71675e-08
1.75293e-05
1.12787e-07
1.75233e-05
9.6732e-08
1.75212e-05
8.48203e-08
1.75244e-05
9.02519e-08
1.75273e-05
9.66218e-08
1.75285e-05
9.4953e-08
1.75301e-05
9.02375e-08
1.7533e-05
8.62658e-08
1.75364e-05
8.23127e-08
1.75398e-05
7.7431e-08
1.75425e-05
7.24139e-08
6.69278e-08
1.75454e-05
1.83708e-05
1.39498e-08
1.83676e-05
1.91581e-08
1.83617e-05
-1.31935e-08
1.8365e-05
2.81667e-08
1.8364e-05
6.573e-08
1.83552e-05
4.38614e-08
1.83542e-05
3.54679e-08
1.83638e-05
7.75827e-08
1.83677e-05
1.08861e-07
1.83637e-05
1.00762e-07
1.83611e-05
8.7363e-08
1.83634e-05
8.80085e-08
1.83668e-05
9.32412e-08
1.83688e-05
9.29275e-08
1.83705e-05
8.84878e-08
1.83734e-05
8.34516e-08
1.83766e-05
7.90641e-08
1.838e-05
7.4047e-08
1.8383e-05
6.93914e-08
6.43501e-08
1.83856e-05
1.92484e-05
1.19434e-08
1.92461e-05
2.14714e-08
1.92395e-05
-6.6463e-09
1.92421e-05
2.56473e-08
1.92428e-05
6.50207e-08
1.92353e-05
5.13746e-08
1.92319e-05
3.8851e-08
1.92393e-05
7.01872e-08
1.92453e-05
1.02821e-07
1.92437e-05
1.02377e-07
1.92413e-05
8.97756e-08
1.92428e-05
8.64775e-08
1.92461e-05
8.99292e-08
1.92487e-05