/*--------------------------------*- C++ -*----------------------------------*\
| =========                 |                                                 |
| \\      /  F ield         | OpenFOAM: The Open Source CFD Toolbox           |
|  \\    /   O peration     | Version:  2106                                  |
|   \\  /    A nd           | Website:  www.openfoam.com                      |
|    \\/     M anipulation  |                                                 |
\*---------------------------------------------------------------------------*/
FoamFile
{
    version     2.0;
    format      ascii;
    arch        "LSB;label=32;scalar=64";
    class       surfaceScalarField;
    location    "0.76";
    object      phi;
}
// * * * * * * * * * * * * * * * * * * * * * * * * * * * * * * * * * * * * * //

dimensions      [0 3 -1 0 0 0 0];

oriented        oriented;

internalField   nonuniform List<scalar> 
19000
(
1.16797e-06
-7.07742e-07
1.18688e-06
9.13769e-07
1.19463e-06
-4.69629e-07
1.18756e-06
1.78508e-07
1.19012e-06
-1.28543e-07
1.20291e-06
-3.97033e-07
1.21289e-06
-1.13493e-07
1.18114e-06
-2.05122e-07
1.19672e-06
5.40969e-07
1.16185e-06
3.77784e-08
1.17722e-06
1.37677e-07
1.16664e-06
9.97636e-08
1.16934e-06
-9.51463e-08
1.17866e-06
-6.37619e-08
1.18469e-06
-1.85242e-07
1.18198e-06
-1.33865e-07
1.19512e-06
-2.29343e-07
1.19098e-06
-1.49917e-07
1.20039e-06
-1.14615e-07
-1.58561e-07
1.16301e-06
1.22741e-06
-7.10889e-07
1.25041e-06
8.90768e-07
1.25671e-06
-4.7593e-07
1.25128e-06
1.83938e-07
1.25096e-06
-1.28221e-07
1.26235e-06
-4.08426e-07
1.2707e-06
-1.21846e-07
1.24226e-06
-1.76674e-07
1.24944e-06
5.33787e-07
1.22425e-06
6.29661e-08
1.22921e-06
1.3272e-07
1.2321e-06
9.68667e-08
1.22425e-06
-8.72943e-08
1.2429e-06
-8.24088e-08
1.23702e-06
-1.79358e-07
1.24905e-06
-1.45901e-07
1.24319e-06
-2.23485e-07
1.26045e-06
-1.67178e-07
1.24492e-06
-9.90775e-08
-1.59227e-07
1.24558e-06
1.28841e-06
-7.16517e-07
1.31749e-06
8.61693e-07
1.31805e-06
-4.76499e-07
1.31856e-06
1.83428e-07
1.31264e-06
-1.22293e-07
1.32345e-06
-4.19238e-07
1.32941e-06
-1.2781e-07
1.30946e-06
-1.56717e-07
1.30887e-06
5.34371e-07
1.29481e-06
7.70301e-08
1.28921e-06
1.38321e-07
1.29949e-06
8.65869e-08
1.28631e-06
-7.41139e-08
1.30223e-06
-9.83275e-08
1.29518e-06
-1.7231e-07
1.30498e-06
-1.55702e-07
1.29927e-06
-2.17771e-07
1.31116e-06
-1.79069e-07
1.30585e-06
-9.37699e-08
-1.49378e-07
1.296e-06
1.35091e-06
-7.23326e-07
1.38306e-06
8.29543e-07
1.37658e-06
-4.70018e-07
1.38296e-06
1.77052e-07
1.37202e-06
-1.11356e-07
1.38216e-06
-4.29373e-07
1.38681e-06
-1.32461e-07
1.37836e-06
-1.48266e-07
1.37597e-06
5.36762e-07
1.36749e-06
8.55079e-08
1.35811e-06
1.477e-07
1.36569e-06
7.90106e-08
1.35414e-06
-6.25682e-08
1.36086e-06
-1.05051e-07
1.35636e-06
-1.67812e-07
1.36123e-06
-1.60569e-07
1.3573e-06
-2.13836e-07
1.36492e-06
-1.86689e-07
1.36415e-06
-9.29994e-08
-1.3892e-07
1.35369e-06
1.41485e-06
-7.29818e-07
1.44614e-06
7.98251e-07
1.43339e-06
-4.5727e-07
1.44304e-06
1.67397e-07
1.42987e-06
-9.81786e-08
1.43807e-06
-4.37578e-07
1.44292e-06
-1.37307e-07
1.44531e-06
-1.50658e-07
1.4467e-06
5.35375e-07
1.43884e-06
9.33701e-08
1.43043e-06
1.56105e-07
1.43218e-06
7.7264e-08
1.4227e-06
-5.30937e-08
1.42281e-06
-1.05162e-07
1.41796e-06
-1.62954e-07
1.42063e-06
-1.63248e-07
1.41626e-06
-2.09464e-07
1.42154e-06
-1.91971e-07
1.4222e-06
-9.36601e-08
-1.29394e-07
1.41268e-06
1.4807e-06
-7.34839e-07
1.50811e-06
7.70843e-07
1.49142e-06
-4.40583e-07
1.50134e-06
1.57475e-07
1.48906e-06
-8.58969e-08
1.49423e-06
-4.42747e-07
1.49955e-06
-1.42627e-07
1.50977e-06
-1.60876e-07
1.51668e-06
5.28456e-07
1.50822e-06
1.01838e-07
1.50174e-06
1.62583e-07
1.49943e-06
7.95731e-08
1.49072e-06
-4.4382e-08
1.48776e-06
-1.0221e-07
1.48146e-06
-1.56654e-07
1.48265e-06
-1.64438e-07
1.47787e-06
-2.0468e-07
1.48051e-06
-1.9461e-07
1.48188e-06
-9.50255e-08
-1.1989e-07
1.47237e-06
1.54911e-06
-7.37734e-07
1.57147e-06
7.48489e-07
1.55349e-06
-4.22608e-07
1.56189e-06
1.4908e-07
1.55238e-06
-7.639e-08
1.55431e-06
-4.4468e-07
1.55913e-06
-1.47442e-07
1.57326e-06
-1.75014e-07
1.58454e-06
5.17176e-07
1.57646e-06
1.09922e-07
1.57164e-06
1.67406e-07
1.56781e-06
8.3399e-08
1.55976e-06
-3.63363e-08
1.55576e-06
-9.82091e-08
1.54874e-06
-1.49627e-07
1.54847e-06
-1.6417e-07
1.54356e-06
-1.99767e-07
1.54334e-06
-1.94398e-07
1.54465e-06
-9.63348e-08
-1.09765e-07
1.53453e-06
1.62063e-06
-7.38237e-07
1.63843e-06
7.30691e-07
1.62121e-06
-4.0539e-07
1.6278e-06
1.42488e-07
1.6214e-06
-6.99845e-08
1.62058e-06
-4.43863e-07
1.62366e-06
-1.50515e-07
1.63809e-06
-1.89453e-07
1.65175e-06
5.03515e-07
1.64519e-06
1.16486e-07
1.64198e-06
1.70614e-07
1.63837e-06
8.70131e-08
1.63156e-06
-2.95269e-08
1.62754e-06
-9.41868e-08
1.62068e-06
-1.42765e-07
1.61915e-06
-1.6264e-07
1.6142e-06
-1.9482e-07
1.61123e-06
-1.91432e-07
1.61191e-06
-9.70152e-08
-9.87441e-08
1.60089e-06
1.69565e-06
-7.36316e-07
1.71023e-06
7.16112e-07
1.69491e-06
-3.90064e-07
1.70031e-06
1.37085e-07
1.6964e-06
-6.60735e-08
1.69349e-06
-4.40959e-07
1.69412e-06
-1.5114e-07
1.7063e-06
-2.01632e-07
1.72077e-06
4.89043e-07
1.71622e-06
1.21036e-07
1.71475e-06
1.72079e-07
1.71222e-06
8.95508e-08
1.70706e-06
-2.43659e-08
1.70348e-06
-9.06147e-08
1.69741e-06
-1.36695e-07
1.69482e-06
-1.60051e-07
1.68995e-06
-1.89949e-07
1.68454e-06
-1.86017e-07
1.68427e-06
-9.67438e-08
-8.69315e-08
1.67245e-06
1.7745e-06
-7.32094e-07
1.78725e-06
7.03362e-07
1.77415e-06
-3.76965e-07
1.77912e-06
1.3212e-07
1.77685e-06
-6.38076e-08
1.77243e-06
-4.36542e-07
1.77057e-06
-1.4928e-07
1.7792e-06
-2.10263e-07
1.79361e-06
4.74635e-07
1.79102e-06
1.23631e-07
1.79128e-06
1.71819e-07
1.79007e-06
9.07588e-08
1.78662e-06
-2.09196e-08
1.78357e-06
-8.75583e-08
1.77867e-06
-1.31799e-07
1.77516e-06
-1.56537e-07
1.77047e-06
-1.85264e-07
1.76309e-06
-1.78638e-07
1.7617e-06
-9.5348e-08
-7.47412e-08
1.74951e-06
1.85745e-06
-7.25797e-07
1.86944e-06
6.91375e-07
1.85833e-06
-3.6586e-07
1.86336e-06
1.2709e-07
1.86201e-06
-6.24594e-08
1.85655e-06
-4.31074e-07
1.85262e-06
-1.45355e-07
1.85745e-06
-2.15096e-07
1.87148e-06
4.60608e-07
1.87054e-06
1.2457e-07
1.87231e-06
1.70053e-07
1.8723e-06
9.07695e-08
1.87041e-06
-1.90313e-08
1.86766e-06
-8.48066e-08
1.86409e-06
-1.28235e-07
1.85976e-06
-1.52203e-07
1.85529e-06
-1.80797e-07
1.84655e-06
-1.699e-07
1.84392e-06
-9.27126e-08
-6.27735e-08
1.83195e-06
1.94476e-06
-7.1772e-07
1.95669e-06
6.79444e-07
1.94702e-06
-3.56186e-07
1.95233e-06
1.21775e-07
1.95138e-06
-6.15009e-08
1.94524e-06
-4.24941e-07
1.93984e-06
-1.39952e-07
1.94129e-06
-2.1654e-07
1.95494e-06
4.46953e-07
1.9553e-06
1.24206e-07
1.95828e-06
1.6708e-07
1.95912e-06
8.99304e-08
1.95856e-06
-1.84746e-08
1.95577e-06
-8.20139e-08
1.9535e-06
-1.25969e-07
1.94845e-06
-1.47149e-07
1.9441e-06
-1.76452e-07
1.93466e-06
-1.60453e-07
1.9307e-06
-8.87591e-08
-5.1632e-08
1.91956e-06
2.03664e-06
-7.08167e-07
2.04897e-06
6.67108e-07
2.04005e-06
-3.47266e-07
2.04572e-06
1.16105e-07
2.04478e-06
-6.05584e-08
2.03831e-06
-4.1847e-07
2.03198e-06
-1.33621e-07
2.03077e-06
-2.15332e-07
2.04421e-06
4.33513e-07
2.04552e-06
1.22893e-07
2.04946e-06
1.63146e-07
2.05071e-06
8.86791e-08
2.05128e-06
-1.90455e-08
2.0481e-06
-7.88344e-08
2.04694e-06
-1.24807e-07
2.0413e-06
-1.41508e-07
2.03683e-06
-1.71987e-07
2.0273e-06
-1.50919e-07
2.02201e-06
-8.34706e-08
-4.17352e-08
2.01211e-06
2.13324e-06
-6.97405e-07
2.14629e-06
6.54059e-07
2.13749e-06
-3.38472e-07
2.14356e-06
1.10036e-07
2.14236e-06
-5.93558e-08
2.1358e-06
-4.11914e-07
2.12895e-06
-1.26768e-07
2.1259e-06
-2.12282e-07
2.13933e-06
4.20082e-07
2.14124e-06
1.20989e-07
2.146e-06
1.58383e-07
2.14723e-06
8.74486e-08
2.14877e-06
-2.05875e-08
2.14496e-06
-7.50272e-08
2.14459e-06
-1.24433e-07
2.13856e-06
-1.35476e-07
2.13362e-06
-1.67053e-07
2.12452e-06
-1.41811e-07
2.11801e-06
-7.69644e-08
-3.31806e-08
2.10945e-06
2.23472e-06
-6.85636e-07
2.24869e-06
6.40088e-07
2.23953e-06
-3.29312e-07
2.24607e-06
1.03497e-07
2.2444e-06
-5.76854e-08
2.23794e-06
-4.0545e-07
2.23081e-06
-1.19642e-07
2.22662e-06
-2.08093e-07
2.24025e-06
4.06449e-07
2.2424e-06
1.18845e-07
2.24796e-06
1.52824e-07
2.24881e-06
8.65963e-08
2.2512e-06
-2.29782e-08
2.24668e-06
-7.05102e-08
2.24671e-06
-1.24458e-07
2.24056e-06
-1.29323e-07
2.23477e-06
-1.61264e-07
2.22645e-06
-1.33494e-07
2.21903e-06
-6.95462e-08
-2.57169e-08
2.21157e-06
2.34123e-06
-6.7299e-07
2.35626e-06
6.25055e-07
2.34641e-06
-3.19457e-07
2.35351e-06
9.63926e-08
2.35122e-06
-5.53987e-08
2.34496e-06
-3.99182e-07
2.33769e-06
-1.1237e-07
2.33286e-06
-2.03263e-07
2.34687e-06
3.92431e-07
2.34894e-06
1.16775e-07
2.35533e-06
1.46435e-07
2.35557e-06
8.63626e-08
2.35869e-06
-2.6099e-08
2.35355e-06
-6.53689e-08
2.35355e-06
-1.24458e-07
2.3476e-06
-1.2338e-07
2.34061e-06
-1.54272e-07
2.33326e-06
-1.26141e-07
2.32534e-06
-6.16262e-08
-1.89277e-08
2.31855e-06
2.45294e-06
-6.59538e-07
2.46913e-06
6.08873e-07
2.45837e-06
-3.08702e-07
2.46614e-06
8.86268e-08
2.46314e-06
-5.24034e-08
2.45712e-06
-3.93159e-07
2.44977e-06
-1.05017e-07
2.44457e-06
-1.98066e-07
2.45912e-06
3.77881e-07
2.46086e-06
1.15034e-07
2.46813e-06
1.39166e-07
2.46763e-06
8.68596e-08
2.47134e-06
-2.98049e-08
2.4658e-06
-5.98347e-08
2.46535e-06
-1.24e-07
2.45996e-06
-1.1799e-07
2.45155e-06
-1.45862e-07
2.44509e-06
-1.19685e-07
2.43717e-06
-5.37044e-08
-1.23848e-08
2.43063e-06
2.57006e-06
-6.45308e-07
2.58745e-06
5.91486e-07
2.57568e-06
-2.96936e-07
2.58419e-06
8.0125e-08
2.58044e-06
-4.86558e-08
2.57467e-06
-3.87388e-07
2.56728e-06
-9.76263e-08
2.56181e-06
-1.92597e-07
2.577e-06
3.62694e-07
2.57823e-06
1.13804e-07
2.58641e-06
1.30985e-07
2.58519e-06
8.80792e-08
2.58929e-06
-3.39034e-08
2.58369e-06
-5.42399e-08
2.58236e-06
-1.22666e-07
2.57781e-06
-1.13445e-07
2.56803e-06
-1.3608e-07
2.56209e-06
-1.1375e-07
2.55473e-06
-4.6339e-08
-5.78229e-09
2.54813e-06
2.69282e-06
-6.30304e-07
2.71145e-06
5.72863e-07
2.69861e-06
-2.84102e-07
2.7079e-06
7.08433e-08
2.70339e-06
-4.41497e-08
2.69785e-06
-3.81847e-07
2.69048e-06
-9.02533e-08
2.68471e-06
-1.8683e-07
2.70062e-06
3.46786e-07
2.70121e-06
1.13215e-07
2.7103e-06
1.21893e-07
2.70847e-06
8.99108e-08
2.7127e-06
-3.81403e-08
2.70744e-06
-4.89747e-08
2.70485e-06
-1.20078e-07
2.70132e-06
-1.09911e-07
2.69048e-06
-1.25247e-07
2.68448e-06
-1.07743e-07
2.67817e-06
-4.00375e-08
9.79113e-10
2.67141e-06
2.82148e-06
-6.1452e-07
2.84136e-06
5.52987e-07
2.82744e-06
-2.7018e-07
2.83751e-06
6.07707e-08
2.83227e-06
-3.8907e-08
2.82691e-06
-3.76488e-07
2.81964e-06
-8.29814e-08
2.81348e-06
-1.8067e-07
2.83018e-06
3.30086e-07
2.83005e-06
1.13347e-07
2.83999e-06
1.11945e-07
2.83775e-06
9.21521e-08
2.84181e-06
-4.22003e-08
2.83727e-06
-4.44346e-08
2.83314e-06
-1.15945e-07
2.8306e-06
-1.07372e-07
2.81921e-06
-1.13858e-07
2.81258e-06
-1.01115e-07
2.80763e-06
-3.50795e-08
7.76054e-09
2.80084e-06
2.95633e-06
-5.9795e-07
2.97746e-06
5.31851e-07
2.96246e-06
-2.55173e-07
2.9733e-06
4.99265e-08
2.96737e-06
-3.29739e-08
2.96211e-06
-3.71235e-07
2.95506e-06
-7.59283e-08
2.94838e-06
-1.73991e-07
2.96594e-06
3.12531e-07
2.96505e-06
1.14231e-07
2.97573e-06
1.0127e-07
2.97336e-06
9.4524e-08
2.97689e-06
-4.57339e-08
2.9734e-06
-4.09429e-08
2.96762e-06
-1.10166e-07
2.96581e-06
-1.05567e-07
2.95446e-06
-1.02508e-07
2.94685e-06
-9.35014e-08
2.94319e-06
-3.14215e-08
1.42135e-08
2.93674e-06
3.09765e-06
-5.80592e-07
3.12004e-06
5.09464e-07
3.10397e-06
-2.39111e-07
3.11554e-06
3.83606e-08
3.10899e-06
-2.64209e-08
3.10373e-06
-3.65979e-07
3.09705e-06
-6.92491e-08
3.08972e-06
-1.66657e-07
3.10817e-06
2.94079e-07
3.10657e-06
1.1583e-07
3.11775e-06
9.00851e-08
3.1156e-06
9.66808e-08
3.11823e-06
-4.83706e-08
3.11602e-06
-3.87303e-08
3.10868e-06
-1.02826e-07
3.10716e-06
-1.04047e-07
3.09643e-06
-9.17774e-08
3.08772e-06
-8.47878e-08
3.08503e-06
-2.87303e-08
1.98831e-08
3.07936e-06
3.24577e-06
-5.62451e-07
3.26939e-06
4.85847e-07
3.25232e-06
-2.22045e-07
3.26453e-06
2.61539e-08
3.25745e-06
-1.93453e-08
3.25205e-06
-3.6058e-07
3.24593e-06
-6.31292e-08
3.23781e-06
-1.58532e-07
3.25716e-06
2.74722e-07
3.25497e-06
1.18025e-07
3.26636e-06
7.8693e-08
3.2648e-06
9.82428e-08
3.26619e-06
-4.97644e-08
3.26535e-06
-3.78894e-08
3.25671e-06
-9.41848e-08
3.25495e-06
-1.02288e-07
3.24528e-06
-8.21078e-08
3.23563e-06
-7.51321e-08
3.23338e-06
-2.64827e-08
2.43497e-08
3.22891e-06
3.40102e-06
-5.43538e-07
3.42582e-06
4.61041e-07
3.40784e-06
-2.0406e-07
3.42057e-06
1.34218e-08
3.4131e-06
-1.18736e-08
3.40739e-06
-3.54868e-07
3.40204e-06
-5.77773e-08
3.393e-06
-1.49498e-07
3.41321e-06
2.54512e-07
3.41062e-06
1.20613e-07
3.42186e-06
6.74538e-08
3.42127e-06
9.88394e-08
3.42114e-06
-4.96418e-08
3.42161e-06
-3.83578e-08
3.41205e-06
-8.46211e-08
3.40955e-06
-9.97904e-08
3.40122e-06
-7.37808e-08
3.39094e-06
-6.485e-08
3.38861e-06
-2.4151e-08
2.73745e-08
3.38558e-06
3.56375e-06
-5.23877e-07
3.58968e-06
4.35108e-07
3.5709e-06
-1.85274e-07
3.584e-06
3.18204e-10
3.57629e-06
-4.16407e-09
3.57006e-06
-3.48638e-07
3.5657e-06
-5.34158e-08
3.55567e-06
-1.39467e-07
3.57661e-06
2.33573e-07
3.57391e-06
1.2331e-07
3.58461e-06
5.67594e-08
3.58528e-06
9.81639e-08
3.58351e-06
-4.78671e-08
3.58504e-06
-3.98862e-08
3.57502e-06
-7.46034e-08
3.57138e-06
-9.61545e-08
3.56448e-06
-6.68747e-08
3.55402e-06
-5.43936e-08
3.55115e-06
-2.12862e-08
2.89634e-08
3.54957e-06
3.73433e-06
-5.035e-07
3.7613e-06
4.08133e-07
3.74188e-06
-1.65846e-07
3.75515e-06
-1.29593e-08
3.7474e-06
3.59178e-09
3.74042e-06
-3.41661e-07
3.73728e-06
-5.02732e-08
3.72621e-06
-1.28401e-07
3.74767e-06
2.12115e-07
3.74521e-06
1.25767e-07
3.75498e-06
4.69935e-08
3.75712e-06
9.60202e-08
3.75373e-06
-4.44737e-08
3.7559e-06
-4.20532e-08
3.74593e-06
-6.46394e-08
3.74092e-06
-9.11432e-08
3.73532e-06
-6.12722e-08
3.72517e-06
-4.42472e-08
3.72151e-06
-1.76265e-08
2.93717e-08
3.7211e-06
3.91314e-06
-4.82453e-07
3.94105e-06
3.80229e-07
3.92119e-06
-1.45985e-07
3.93439e-06
-2.61625e-08
3.9268e-06
1.11761e-08
3.91884e-06
-3.33696e-07
3.91711e-06
-4.85429e-08
3.90505e-06
-1.16345e-07
3.92675e-06
1.90421e-07
3.92488e-06
1.27636e-07
3.9334e-06
3.84712e-08
3.93705e-06
9.23719e-08
3.93223e-06
-3.96572e-08
3.93454e-06
-4.43601e-08
3.9251e-06
-5.52031e-08
3.91865e-06
-8.46891e-08
3.91409e-06
-5.67085e-08
3.90469e-06
-3.48548e-08
3.90018e-06
-1.31109e-08
2.90201e-08
3.90053e-06
4.10059e-06
-4.60796e-07
4.12929e-06
3.51536e-07
4.10925e-06
-1.25954e-07
4.12209e-06
-3.89927e-08
4.11491e-06
1.8348e-08
4.10573e-06
-3.24509e-07
4.10554e-06
-4.83529e-08
4.09264e-06
-1.03451e-07
4.11422e-06
1.68843e-07
4.11327e-06
1.28585e-07
4.12032e-06
3.14247e-08
4.12536e-06
8.73339e-08
4.11942e-06
-3.37187e-08
4.12137e-06
-4.63145e-08
4.11284e-06
-4.66733e-08
4.10508e-06
-7.6923e-08
4.10117e-06
-5.27987e-08
4.09289e-06
-2.65798e-08
4.08762e-06
-7.83909e-09
2.83841e-08
4.08826e-06
4.29711e-06
-4.38601e-07
4.32641e-06
3.22229e-07
4.30654e-06
-1.06081e-07
4.31865e-06
-5.10982e-08
4.31214e-06
2.48568e-08
4.30154e-06
-3.13908e-07
4.3029e-06
-4.97189e-08
4.28943e-06
-8.99771e-08
4.31051e-06
1.47765e-07
4.31075e-06
1.28338e-07
4.31619e-06
2.5986e-08
4.32237e-06
8.116e-08
4.31564e-06
-2.69912e-08
4.31682e-06
-4.75013e-08
4.30947e-06
-3.9317e-08
4.3007e-06
-6.81563e-08
4.29701e-06
-4.91077e-08
4.29007e-06
-1.964e-08
4.28432e-06
-2.08503e-09
2.7938e-08
4.28476e-06
4.50313e-06
-4.15956e-07
4.53284e-06
2.92516e-07
4.51351e-06
-8.67532e-08
4.5245e-06
-6.20846e-08
4.5189e-06
3.04543e-08
4.50677e-06
-3.01772e-07
4.50958e-06
-5.25316e-08
4.49587e-06
-7.62635e-08
4.51605e-06
1.27583e-07
4.5177e-06
1.2669e-07
4.52146e-06
2.22239e-08
4.52848e-06
7.41402e-08
4.52127e-06
-1.97776e-08
4.52137e-06
-4.76077e-08
4.51533e-06
-3.32736e-08
4.50601e-06
-5.88367e-08
4.50211e-06
-4.5213e-08
4.49655e-06
-1.40733e-08
4.49072e-06
3.74126e-09
2.80676e-08
4.49059e-06
4.71912e-06
-3.92965e-07
4.749e-06
2.62637e-07
4.73063e-06
-6.83834e-08
4.74011e-06
-7.15591e-08
4.73565e-06
3.49117e-08
4.72194e-06
-2.88066e-07
4.72596e-06
-5.65454e-08
4.71241e-06
-6.27188e-08
4.73131e-06
1.08688e-07
4.73449e-06
1.23509e-07
4.73657e-06
2.01401e-08
4.74413e-06
6.65816e-08
4.7368e-06
-1.24433e-08
4.73558e-06
-4.63928e-08
4.73086e-06
-2.85536e-08
4.72142e-06
-4.93961e-08
4.71706e-06
-4.08527e-08
4.7127e-06
-9.71606e-09
4.70723e-06
9.2151e-09
2.89639e-08
4.70633e-06
4.94558e-06
-3.69746e-07
4.97535e-06
2.32867e-07
4.95834e-06
-5.13786e-08
4.96596e-06
-7.9171e-08
4.9628e-06
3.80622e-08
4.94761e-06
-2.72871e-07
4.95249e-06
-6.14298e-08
4.93952e-06
-4.97407e-08
4.95678e-06
9.14191e-08
4.96152e-06
1.18776e-07
4.962e-06
1.96556e-08
4.96975e-06
5.88331e-08
4.96269e-06
-5.38772e-09
4.96013e-06
-4.38263e-08
4.9565e-06
-2.49231e-08
4.94739e-06
-4.02892e-08
4.94245e-06
-3.59084e-08
4.93897e-06
-6.23469e-09
4.93422e-06
1.39652e-08
3.05788e-08
4.9326e-06
5.183e-06
-3.46433e-07
5.21236e-06
2.0351e-07
5.19708e-06
-3.61022e-08
5.20258e-06
-8.46682e-08
5.2008e-06
3.98391e-08
5.18432e-06
-2.5639e-07
5.18967e-06
-6.67774e-08
5.17763e-06
-3.76949e-08
5.193e-06
7.60421e-08
5.19919e-06
1.12585e-07
5.19824e-06
2.06078e-08
5.2058e-06
5.1275e-08
5.19944e-06
9.74582e-10
5.19561e-06
-3.99978e-08
5.19276e-06
-2.20737e-08
5.18432e-06
-3.18498e-08
5.17887e-06
-3.04543e-08
5.17588e-06
-3.24466e-09
5.17202e-06
1.78221e-08
3.26319e-08
5.16997e-06
5.43193e-06
-3.23171e-07
5.46054e-06
1.74893e-07
5.44729e-06
-2.2844e-08
5.45057e-06
-8.7956e-08
5.45011e-06
4.03031e-08
5.43264e-06
-2.38922e-07
5.43803e-06
-7.21609e-08
5.4272e-06
-2.68729e-08
5.44051e-06
6.27318e-08
5.44799e-06
1.05104e-07
5.44595e-06
2.26503e-08
5.45282e-06
4.44019e-08
5.44747e-06
6.3295e-09
5.44262e-06
-3.51451e-08
5.44022e-06
-1.96785e-08
5.43265e-06
-2.42819e-08
5.42689e-06
-2.46881e-08
5.42406e-06
-4.1774e-10
5.42102e-06
2.08618e-08
3.47248e-08
5.41893e-06
5.6929e-06
-3.00117e-07
5.72044e-06
1.47358e-07
5.70939e-06
-1.17963e-08
5.71055e-06
-8.91165e-08
5.71122e-06
3.96375e-08
5.69312e-06
-2.20822e-07
5.69812e-06
-7.7166e-08
5.68873e-06
-1.74808e-08
5.69988e-06
5.15871e-08
5.70838e-06
9.66004e-08
5.70571e-06
2.53234e-08
5.71154e-06
3.85711e-08
5.70733e-06
1.05382e-08
5.70172e-06
-2.95414e-08
5.69947e-06
-1.74256e-08
5.69287e-06
-1.7684e-08
5.68703e-06
-1.88399e-08
5.68419e-06
2.42031e-09
5.68174e-06
2.33057e-08
3.65495e-08
5.67992e-06
5.96651e-06
-2.77437e-07
5.99262e-06
1.21254e-07
5.98387e-06
-3.04944e-09
5.98315e-06
-8.83976e-08
5.98466e-06
3.81311e-08
5.96631e-06
-2.02476e-07
5.97058e-06
-8.14396e-08
5.96273e-06
-9.62767e-09
5.97166e-06
4.26618e-08
5.98086e-06
8.73978e-08
5.978e-06
2.81842e-08
5.98269e-06
3.38752e-08
5.97958e-06
1.36481e-08
5.97352e-06
-2.34806e-08
5.97115e-06
-1.50498e-08
5.9655e-06
-1.20353e-08
5.95976e-06
-1.31019e-08
5.95692e-06
5.26253e-09
5.95485e-06
2.53779e-08
3.80256e-08
5.95337e-06
6.25335e-06
-2.55301e-07
6.27767e-06
9.69326e-08
6.27123e-06
3.39866e-09
6.26898e-06
-8.61541e-08
6.27101e-06
3.60992e-08
6.25279e-06
-1.84256e-07
6.25609e-06
-8.47363e-08
6.24973e-06
-3.27156e-09
6.25655e-06
3.58456e-08
6.26596e-06
7.79883e-08
6.26331e-06
3.08326e-08
6.2669e-06
3.02907e-08
6.26485e-06
1.56936e-08
6.25861e-06
-1.72379e-08
6.2559e-06
-1.23438e-08
6.25109e-06
-7.22047e-09
6.24567e-06
-7.684e-09
6.24283e-06
8.10133e-09
6.24104e-06
2.71689e-08
3.92413e-08
6.23982e-06
6.55405e-06
-2.33886e-07
6.57624e-06
7.47484e-08
6.57204e-06
7.59381e-09
6.56865e-06
-8.27589e-08
6.57094e-06
3.38091e-08
6.55317e-06
-1.66483e-07
6.55534e-06
-8.69085e-08
6.55032e-06
1.74794e-09
6.55524e-06
3.09229e-08
6.56436e-06
6.88656e-08
6.56214e-06
3.30576e-08
6.56479e-06
2.76404e-08
6.56372e-06
1.67629e-08
6.55764e-06
-1.11552e-08
6.5544e-06
-9.10644e-09
6.55029e-06
-3.10837e-09
6.54531e-06
-2.7079e-09
6.54253e-06
1.08801e-08
6.54099e-06
2.87158e-08
4.02602e-08
6.53997e-06
6.86927e-06
-2.13368e-07
6.88895e-06
5.50738e-08
6.88701e-06
9.53445e-09
6.88278e-06
-7.8537e-08
6.88511e-06
3.14833e-08
6.86802e-06
-1.49388e-07
6.86901e-06
-8.79037e-08
6.86509e-06
5.67051e-09
6.86844e-06
2.75692e-08
6.87704e-06
6.02666e-08
6.87522e-06
3.48796e-08
6.877e-06
2.58611e-08
6.87682e-06
1.69379e-08
6.8712e-06
-5.5315e-09
6.86743e-06
-5.33505e-09
6.86375e-06
5.71393e-10
6.85929e-06
1.75213e-09
6.85667e-06
1.35021e-08
6.85532e-06
3.00613e-08
4.10729e-08
6.85451e-06
7.19969e-06
-1.93923e-07
7.21646e-06
3.83029e-08
7.21683e-06
9.17103e-09
7.21208e-06
-7.37958e-08
7.21425e-06
2.93158e-08
7.19802e-06
-1.33154e-07
7.19781e-06
-8.76955e-08
7.19473e-06
8.74667e-09
7.19687e-06
2.54313e-08
7.20492e-06
5.22146e-08
7.20342e-06
3.63881e-08
7.20423e-06
2.50496e-08
7.20476e-06
1.64016e-08
7.19996e-06
-7.25589e-10
7.19576e-06
-1.14017e-09
7.1922e-06
4.13698e-09
7.18824e-06
5.70386e-09
7.18589e-06
1.58594e-08
7.18474e-06
3.12045e-08
4.16756e-08
7.18414e-06
7.54602e-06
-1.75712e-07
7.5595e-06
2.48191e-08
7.5622e-06
6.46514e-09
7.55727e-06
-6.88612e-08
7.55911e-06
2.74801e-08
7.54384e-06
-1.17892e-07
7.54254e-06
-8.63949e-08
7.54002e-06
1.12651e-08
7.54124e-06
2.42129e-08
7.54877e-06
4.46898e-08
7.54761e-06
3.75481e-08
7.5473e-06
2.53527e-08
7.54815e-06
1.55596e-08
7.5445e-06
2.91889e-09
7.54019e-06
3.17622e-09
7.53649e-06
7.83239e-09
7.53289e-06
9.30233e-09
7.53085e-06
1.78996e-08
7.52997e-06
3.20872e-08
4.20784e-08
7.52957e-06
7.90898e-06
-1.58878e-07
7.91905e-06
1.47462e-08
7.92386e-06
1.65137e-09
7.91911e-06
-6.41072e-08
7.92039e-06
2.6204e-08
7.90615e-06
-1.03655e-07
7.90409e-06
-8.43321e-08
7.90181e-06
1.35461e-08
7.90214e-06
2.38751e-08
7.90926e-06
3.75712e-08
7.90863e-06
3.81839e-08
7.90712e-06
2.68603e-08
7.90777e-06
1.49053e-08
7.9054e-06
5.28709e-09
7.90139e-06
7.1879e-09
7.89752e-06
1.17061e-08
7.89405e-06
1.27751e-08
7.89227e-06
1.96797e-08
7.89174e-06
3.26177e-08
4.22831e-08
7.89153e-06
8.28933e-06
-1.43528e-07
8.29615e-06
7.92527e-09
8.30255e-06
-4.74555e-09
8.29836e-06
-5.99149e-08
8.29884e-06
2.57192e-08
8.28563e-06
-9.04397e-08
8.28321e-06
-8.19191e-08
8.28095e-06
1.58112e-08
8.28024e-06
2.45823e-08
8.28705e-06
3.07598e-08
8.28722e-06
3.80111e-08
8.28462e-06
2.94611e-08
8.28456e-06
1.4968e-08
8.2833e-06
6.54746e-09
8.28002e-06
1.04728e-08
8.27618e-06
1.55396e-08
8.27259e-06
1.63719e-08
8.27093e-06
2.13393e-08
8.27077e-06
3.27693e-08
4.22334e-08
8.27082e-06
8.68785e-06
-1.2972e-07
8.69177e-06
4.00653e-09
8.69902e-06
-1.19915e-08
8.6958e-06
-5.6693e-08
8.69532e-06
2.61953e-08
8.68303e-06
-7.81483e-08
8.68066e-06
-7.95467e-08
8.67841e-06
1.80593e-08
8.67639e-06
2.66017e-08
8.68273e-06
2.4422e-08
8.68415e-06
3.65906e-08
8.68083e-06
3.27765e-08
8.67956e-06
1.62369e-08
8.67894e-06
7.17191e-09
8.67673e-06
1.26839e-08
8.6732e-06
1.90682e-08
8.66953e-06
2.00461e-08
8.66773e-06
2.31322e-08
8.66785e-06
3.26507e-08
4.18334e-08
8.66825e-06
9.10535e-06
-1.17449e-07
9.10684e-06
2.51385e-09
9.11409e-06
-1.92377e-08
9.11231e-06
-5.49203e-08
9.11084e-06
2.76695e-08
9.09914e-06
-6.64442e-08
9.09717e-06
-7.75815e-08
9.09521e-06
2.00243e-08
9.09156e-06
3.02498e-08
9.09697e-06
1.90059e-08
9.10005e-06
3.35137e-08
9.09664e-06
3.61858e-08
9.09391e-06
1.89723e-08
9.0933e-06
7.777e-09
9.09221e-06
1.37734e-08
9.08934e-06
2.19435e-08
9.08577e-06
2.36136e-08
9.08367e-06
2.52292e-08
9.08383e-06
3.24938e-08
4.10306e-08
9.08463e-06
9.54265e-06
-1.0664e-07
9.54232e-06
2.848e-09
9.54867e-06
-2.55877e-08
9.54879e-06
-5.50397e-08
9.54651e-06
2.99463e-08
9.5348e-06
-5.47331e-08
9.53342e-06
-7.62029e-08
9.53231e-06
2.11293e-08
9.52695e-06
3.56164e-08
9.5307e-06
1.52576e-08
9.53552e-06
2.86869e-08
9.53285e-06
3.88617e-08
9.52876e-06
2.30622e-08
9.52747e-06
9.06024e-09
9.52726e-06
1.39827e-08
9.52536e-06
2.38496e-08
9.52214e-06
2.68362e-08
9.51981e-06
2.75525e-08
9.51972e-06
3.2588e-08
3.99436e-08
9.52081e-06
1.00006e-05
-9.71506e-08
9.99914e-06
4.35356e-09
1.00038e-05
-3.02491e-08
1.0006e-05
-5.72621e-08
1.00035e-05
3.25127e-08
9.99107e-06
-4.23417e-08
9.99014e-06
-7.52759e-08
9.99066e-06
2.06045e-08
9.98392e-06
4.23627e-08
9.98502e-06
1.41525e-08
9.99116e-06
2.25496e-08
9.99015e-06
3.98667e-08
9.9852e-06
2.80139e-08
9.98272e-06
1.15417e-08
9.98288e-06
1.38258e-08
9.98204e-06
2.46876e-08
9.97947e-06
2.94091e-08
9.97711e-06
2.99104e-08
9.97666e-06
3.30401e-08
3.8854e-08
9.97775e-06
1.04803e-05
-8.87837e-08
1.04782e-05
6.39445e-09
1.04807e-05
-3.27133e-08
1.04847e-05
-6.13156e-08
1.04828e-05
3.45075e-08
1.04691e-05
-2.87112e-08
1.04681e-05
-7.42736e-08
1.0471e-05
1.76846e-08
1.04637e-05
4.96907e-08
1.04615e-05
1.63633e-08
1.04678e-05
1.62764e-08
1.04692e-05
3.8469e-08
1.04642e-05
3.30278e-08
1.04603e-05
1.53622e-08
1.04602e-05
1.39714e-08
1.04603e-05
2.45805e-08
1.04586e-05
3.10605e-08
1.04564e-05
3.21173e-08
1.04557e-05
3.37385e-08
3.80078e-08
1.04566e-05
1.09825e-05
-8.13033e-08
1.09805e-05
8.39175e-09
1.09806e-05
-3.28101e-08
1.09858e-05
-6.64956e-08
1.09854e-05
3.49607e-08
1.09704e-05
-1.3763e-08
1.09682e-05
-7.20862e-08
1.09741e-05
1.18414e-08
1.09674e-05
5.64085e-08
1.09618e-05
2.18675e-08
1.09667e-05
1.14615e-08
1.09704e-05
3.47046e-08
1.09665e-05
3.6949e-08
1.09615e-05
2.03234e-08
1.09605e-05
1.50226e-08
1.09612e-05
2.38742e-08
1.09606e-05
3.16932e-08
1.09588e-05
3.38998e-08
1.0958e-05
3.45667e-08
3.74266e-08
1.09585e-05
1.15085e-05
-7.44538e-08
1.15071e-05
9.83679e-09
1.15048e-05
-3.05838e-08
1.15103e-05
-7.19324e-08
1.15122e-05
3.30565e-08
1.14963e-05
2.08135e-09
1.14916e-05
-6.73904e-08
1.15004e-05
3.11836e-09
1.14957e-05
6.10742e-08
1.14874e-05
3.01343e-08
1.14895e-05
9.41427e-09
1.14948e-05
2.93807e-08
1.14929e-05
3.89033e-08
1.14874e-05
2.57651e-08
1.14852e-05
1.72251e-08
1.1486e-05
2.31267e-08
1.14862e-05
3.14192e-08
1.14851e-05
3.50017e-08
1.14843e-05
3.54103e-08
3.69975e-08
1.14847e-05
1.20593e-05
-6.79779e-08
1.20588e-05
1.03397e-08
1.20545e-05
-2.6291e-08
1.20593e-05
-7.67055e-08
1.20639e-05
2.84542e-08
1.20483e-05
1.77505e-08
1.20401e-05
-5.91914e-08
1.20505e-05
-7.35891e-09
1.20493e-05
6.22801e-08
1.20394e-05
4.00194e-08
1.20381e-05
1.07735e-08
1.20436e-05
2.38511e-08
1.20438e-05
3.86878e-08
1.20389e-05
3.06998e-08
1.20357e-05
2.04694e-08
1.20359e-05
2.2896e-08
1.20368e-05
3.05078e-08
1.20365e-05
3.52855e-08
1.20358e-05
3.61102e-08
3.663e-08
1.20362e-05
1.26363e-05
-6.1653e-08
1.2637e-05
9.6429e-09
1.2631e-05
-2.03421e-08
1.26343e-05
-7.99689e-08
1.26414e-05
2.13471e-08
1.26273e-05
3.18231e-08
1.26154e-05
-4.72453e-08
1.26254e-05
-1.73799e-08
1.26288e-05
5.88896e-08
1.26189e-05
4.98925e-08
1.26142e-05
1.5528e-08
1.26184e-05
1.95978e-08
1.26205e-05
3.65904e-08
1.26168e-05
3.43678e-08
1.2613e-05
2.43243e-08
1.26124e-05
2.34522e-08
1.26135e-05
2.93961e-08
1.26141e-05
3.47572e-08
1.26137e-05
3.64628e-08
3.62994e-08
1.2614e-05
1.32406e-05
-5.53091e-08
1.32427e-05
7.5712e-09
1.32355e-05
-1.31899e-08
1.32366e-05
-8.10264e-08
1.32457e-05
1.22625e-08
1.32345e-05
4.29704e-08
1.32194e-05
-3.21178e-08
1.32265e-05
-2.44753e-08
1.32346e-05
5.07216e-08
1.32266e-05
5.79008e-08
1.32191e-05
2.30599e-08
1.3221e-05
1.77073e-08
1.32242e-05
3.3394e-08
1.32221e-05
3.64383e-08
1.32183e-05
2.8143e-08
1.3217e-05
2.47548e-08
1.32179e-05
2.85136e-08
1.3219e-05
3.36161e-08
1.32192e-05
3.62854e-08
3.59735e-08
1.32195e-05
1.38737e-05
-4.88639e-08
1.38771e-05
4.18553e-09
1.38694e-05
-5.45767e-09
1.38676e-05
-7.92455e-08
1.3878e-05
1.81485e-09
1.38706e-05
5.04465e-08
1.38537e-05
-1.52224e-08
1.3856e-05
-2.68404e-08
1.38674e-05
3.93509e-08
1.38632e-05
6.20574e-08
1.38542e-05
3.21421e-08
1.38533e-05
1.86109e-08
1.38565e-05
3.01918e-08
1.38559e-05
3.70135e-08
1.38527e-05
3.13494e-08
1.38509e-05
2.65549e-08
1.38513e-05
2.80824e-08
1.38527e-05
3.21978e-08
1.38536e-05
3.54609e-08
3.55676e-08
1.3854e-05
1.45371e-05
-4.23308e-08
1.45415e-05
-1.594e-10
1.45339e-05
2.07103e-09
1.45289e-05
-7.42308e-08
1.45399e-05
-9.14675e-09
1.45365e-05
5.38789e-08
1.45193e-05
1.89046e-09
1.45168e-05
-2.432e-08
1.45287e-05
2.75023e-08
1.4529e-05
6.17015e-08
1.45204e-05
4.07659e-08
1.45169e-05
2.2166e-08
1.4519e-05
2.80341e-08
1.45197e-05
3.63551e-08
1.45173e-05
3.37464e-08
1.45154e-05
2.84702e-08
1.45154e-05
2.80901e-08
1.45167e-05
3.08852e-08
1.45181e-05
3.40665e-08
3.48976e-08
1.45187e-05
1.52324e-05
-3.58142e-08
1.52371e-05
-4.87808e-09
1.52306e-05
8.54541e-09
1.52224e-05
-6.60131e-08
1.52326e-05
-1.93881e-08
1.52332e-05
5.32896e-08
1.52175e-05
1.76509e-08
1.52108e-05
-1.76613e-08
1.52206e-05
1.77286e-08
1.5225e-05
5.72331e-08
1.52186e-05
4.72393e-08
1.52131e-05
2.75897e-08
1.52138e-05
2.7401e-08
1.52149e-05
3.52213e-08
1.52135e-05
3.51969e-08
1.52117e-05
3.02682e-08
1.52114e-05
2.83282e-08
1.52125e-05
2.98571e-08
1.52141e-05
3.2411e-08
3.37767e-08
1.52152e-05
1.5961e-05
-2.95046e-08
1.59654e-05
-9.23589e-09
1.59607e-05
1.32024e-08
1.59498e-05
-5.50693e-08
1.59578e-05
-2.74385e-08
1.59622e-05
4.8943e-08
1.5949e-05
3.08256e-08
1.59393e-05
-7.98994e-09
1.59456e-05
1.14162e-08
1.59527e-05
5.01824e-08
1.59492e-05
5.07781e-08
1.59435e-05
3.32178e-08
1.59423e-05
2.85858e-08
1.59434e-05
3.41262e-08
1.59428e-05
3.58364e-08
1.59413e-05
3.17861e-08
1.59409e-05
2.86658e-08
1.59418e-05
2.90262e-08
1.59433e-05
3.08355e-08
3.22191e-08
1.59449e-05
1.67247e-05
-2.36095e-08
1.6728e-05
-1.25662e-08
1.67256e-05
1.56892e-08
1.67129e-05
-4.24255e-08
1.67173e-05
-3.18741e-08
1.67247e-05
4.16299e-08
1.6715e-05
4.04572e-08
1.67038e-05
3.22711e-09
1.67063e-05
8.90938e-09
1.67139e-05
4.25492e-08
1.67134e-05
5.13369e-08
1.67088e-05
3.78412e-08
1.67065e-05
3.08553e-08
1.67069e-05
3.3723e-08
1.67069e-05
3.58573e-08
1.67057e-05
3.29445e-08
1.67053e-05
2.90789e-08
1.67061e-05
2.82051e-08
1.67075e-05
2.94269e-08
3.04885e-08
1.67093e-05
1.7525e-05
-1.82725e-08
1.7527e-05
-1.45858e-08
1.75264e-05
1.63269e-08
1.75136e-05
-2.95817e-08
1.75135e-05
-3.18426e-08
1.75223e-05
3.29046e-08
1.75167e-05
4.60087e-08
1.75056e-05
1.42903e-08
1.75045e-05
1.00284e-08
1.7511e-05
3.60793e-08
1.7513e-05
4.92882e-08
1.75098e-05
4.10595e-08
1.75075e-05
3.3177e-08
1.75072e-05
3.39836e-08
1.75073e-05
3.57593e-08
1.75067e-05
3.3605e-08
1.75061e-05
2.96122e-08
1.75069e-05
2.7406e-08
1.75083e-05
2.80403e-08
2.88461e-08
1.751e-05
1.83637e-05
-1.35941e-08
1.83643e-05
-1.52132e-08
1.83649e-05
1.57094e-08
1.8353e-05
-1.77046e-08
1.83492e-05
-2.79984e-08
1.83572e-05
2.49314e-08
1.83556e-05
4.76176e-08
1.8346e-05
2.38947e-08
1.83421e-05
1.3849e-08
1.83465e-05
3.16675e-08
1.83499e-05
4.59782e-08
1.83485e-05
4.24493e-08
1.83465e-05
3.51862e-08
1.8346e-05
3.43904e-08
1.8346e-05
3.57779e-08
1.83457e-05
3.39156e-08
1.83452e-05
3.0112e-08
1.83457e-05