/*--------------------------------*- C++ -*----------------------------------*\
| =========                 |                                                 |
| \\      /  F ield         | OpenFOAM: The Open Source CFD Toolbox           |
|  \\    /   O peration     | Version:  2106                                  |
|   \\  /    A nd           | Website:  www.openfoam.com                      |
|    \\/     M anipulation  |                                                 |
\*---------------------------------------------------------------------------*/
FoamFile
{
    version     2.0;
    format      ascii;
    arch        "LSB;label=32;scalar=64";
    class       surfaceScalarField;
    location    "0.84";
    object      phi;
}
// * * * * * * * * * * * * * * * * * * * * * * * * * * * * * * * * * * * * * //

dimensions      [0 3 -1 0 0 0 0];

oriented        oriented;

internalField   nonuniform List<scalar> 
19000
(
1.18078e-06
-5.07076e-08
1.1853e-06
1.72859e-07
1.16175e-06
4.12592e-07
1.12895e-06
-5.74386e-07
1.18201e-06
-6.27549e-08
1.15099e-06
-1.48522e-07
1.1363e-06
-2.73383e-07
1.15488e-06
3.42489e-07
1.1538e-06
-1.01057e-08
1.15697e-06
5.4032e-08
1.16919e-06
-8.86093e-08
1.16317e-06
-7.72363e-08
1.18181e-06
2.59328e-07
1.15571e-06
-1.94737e-07
1.17759e-06
1.21351e-07
1.15546e-06
-1.88182e-09
1.16566e-06
3.09995e-08
1.16055e-06
7.38291e-08
1.16042e-06
1.15477e-07
1.08141e-07
1.13443e-06
1.23599e-06
-6.24381e-08
1.24294e-06
1.65915e-07
1.21518e-06
4.40348e-07
1.18258e-06
-5.41784e-07
1.23391e-06
-1.14084e-07
1.2072e-06
-1.21813e-07
1.19135e-06
-2.57538e-07
1.2144e-06
3.19436e-07
1.21133e-06
-7.03335e-09
1.21764e-06
4.77274e-08
1.2258e-06
-9.67696e-08
1.224e-06
-7.54365e-08
1.2343e-06
2.4903e-07
1.21732e-06
-1.7776e-07
1.22579e-06
1.12875e-07
1.22317e-06
7.44219e-10
1.2118e-06
4.23725e-08
1.23123e-06
5.43898e-08
1.20287e-06
1.43837e-07
9.36242e-08
1.21739e-06
1.29254e-06
-7.21989e-08
1.30207e-06
1.56386e-07
1.27194e-06
4.70477e-07
1.24255e-06
-5.12388e-07
1.2864e-06
-1.57936e-07
1.2694e-06
-1.04811e-07
1.24869e-06
-2.36827e-07
1.27568e-06
2.92445e-07
1.27068e-06
-2.03016e-09
1.2816e-06
3.68082e-08
1.28318e-06
-9.83498e-08
1.2875e-06
-7.97615e-08
1.29185e-06
2.44676e-07
1.28455e-06
-1.70456e-07
1.28363e-06
1.13797e-07
1.2902e-06
-5.83048e-09
1.27542e-06
5.71559e-08
1.28761e-06
4.21983e-08
1.27572e-06
1.55726e-07
1.02452e-07
1.2669e-06
1.35107e-06
-7.91707e-08
1.36207e-06
1.45391e-07
1.33246e-06
5.0009e-07
1.30896e-06
-4.8889e-07
1.34181e-06
-1.90791e-07
1.33501e-06
-9.80108e-08
1.31045e-06
-2.12264e-07
1.33629e-06
2.66603e-07
1.33314e-06
1.12085e-09
1.34503e-06
2.49173e-08
1.34336e-06
-9.66802e-08
1.34955e-06
-8.59512e-08
1.35398e-06
2.40251e-07
1.35059e-06
-1.67073e-07
1.34914e-06
1.1525e-07
1.35455e-06
-1.12402e-08
1.34627e-06
6.54377e-08
1.34828e-06
4.01853e-08
1.34707e-06
1.56936e-07
1.16087e-07
1.33344e-06
1.41264e-06
-8.34522e-08
1.42309e-06
1.34934e-07
1.39714e-06
5.26043e-07
1.38044e-06
-4.72192e-07
1.40174e-06
-2.12086e-07
1.40134e-06
-9.76104e-08
1.37779e-06
-1.88714e-07
1.39882e-06
2.45565e-07
1.39982e-06
1.29459e-10
1.4099e-06
1.48323e-08
1.40768e-06
-9.44568e-08
1.41281e-06
-9.10837e-08
1.41885e-06
2.34212e-07
1.41632e-06
-1.64542e-07
1.41667e-06
1.14896e-07
1.41951e-06
-1.40768e-08
1.41605e-06
6.88962e-08
1.41398e-06
4.22569e-08
1.41532e-06
1.55595e-07
1.28567e-07
1.40284e-06
1.47814e-06
-8.59121e-08
1.48619e-06
1.26878e-07
1.46619e-06
5.46042e-07
1.45545e-06
-4.61449e-07
1.46698e-06
-2.23613e-07
1.46816e-06
-9.87958e-08
1.45014e-06
-1.70686e-07
1.46637e-06
2.29331e-07
1.4705e-06
-3.99868e-09
1.47835e-06
6.97759e-09
1.47604e-06
-9.21443e-08
1.47965e-06
-9.469e-08
1.48616e-06
2.27701e-07
1.48337e-06
-1.61753e-07
1.48505e-06
1.13217e-07
1.48629e-06
-1.53246e-08
1.48546e-06
6.97298e-08
1.482e-06
4.57216e-08
1.48457e-06
1.53026e-07
1.40369e-07
1.47276e-06
1.54791e-06
-8.7605e-08
1.55273e-06
1.22057e-07
1.53942e-06
5.5935e-07
1.53298e-06
-4.55008e-07
1.53736e-06
-2.27989e-07
1.53705e-06
-9.84842e-08
1.52585e-06
-1.5949e-07
1.53939e-06
2.15795e-07
1.54434e-06
-8.95704e-09
1.5505e-06
8.26206e-10
1.54767e-06
-8.93233e-08
1.55019e-06
-9.721e-08
1.55609e-06
2.21801e-07
1.55244e-06
-1.58101e-07
1.55495e-06
1.10707e-07
1.55514e-06
-1.55123e-08
1.55621e-06
6.86566e-08
1.55187e-06
5.00696e-08
1.55587e-06
1.49017e-07
1.51725e-07
1.54452e-06
1.62168e-06
-8.91541e-08
1.62369e-06
1.20046e-07
1.61644e-06
5.66598e-07
1.61259e-06
-4.51162e-07
1.61215e-06
-2.27545e-07
1.60958e-06
-9.59091e-08
1.60375e-06
-1.53666e-07
1.61642e-06
2.03126e-07
1.62067e-06
-1.32105e-08
1.62558e-06
-4.08232e-09
1.62193e-06
-8.56728e-08
1.62372e-06
-9.89941e-08
1.62869e-06
2.1683e-07
1.62387e-06
-1.53283e-07
1.62699e-06
1.07586e-07
1.62608e-06
-1.46026e-08
1.62881e-06
6.59284e-08
1.62357e-06
5.53109e-08
1.62888e-06
1.43704e-07
1.623e-07
1.61831e-06
1.69898e-06
-9.0562e-08
1.69939e-06
1.1964e-07
1.69696e-06
5.69022e-07
1.69425e-06
-4.4845e-07
1.69072e-06
-2.24015e-07
1.68661e-06
-9.1797e-08
1.68377e-06
-1.50823e-07
1.69617e-06
1.90718e-07
1.69927e-06
-1.63053e-08
1.70324e-06
-8.05439e-09
1.69871e-06
-8.11428e-08
1.69983e-06
-1.0011e-07
1.70413e-06
2.12528e-07
1.69813e-06
-1.47288e-07
1.70177e-06
1.03952e-07
1.6995e-06
-1.23352e-08
1.70353e-06
6.18953e-08
1.6973e-06
6.1544e-08
1.70337e-06
1.37632e-07
1.71692e-07
1.69398e-06
1.77963e-06
-9.14689e-08
1.7797e-06
1.19573e-07
1.78091e-06
5.67806e-07
1.77818e-06
-4.45718e-07
1.7728e-06
-2.18632e-07
1.76833e-06
-8.73272e-08
1.76646e-06
-1.48956e-07
1.77838e-06
1.78802e-07
1.78039e-06
-1.83217e-08
1.78366e-06
-1.13261e-08
1.7784e-06
-7.58792e-08
1.77878e-06
-1.00485e-07
1.78291e-06
2.0839e-07
1.77589e-06
-1.4026e-07
1.78e-06
9.98323e-08
1.77616e-06
-8.48823e-09
1.78102e-06
5.70321e-08
1.77375e-06
6.88128e-08
1.77984e-06
1.31541e-07
1.79567e-07
1.77197e-06
1.8638e-06
-9.15168e-08
1.86439e-06
1.1898e-07
1.86835e-06
5.63844e-07
1.8648e-06
-4.42164e-07
1.85841e-06
-2.12249e-07
1.85456e-06
-8.34677e-08
1.85248e-06
-1.46876e-07
1.86348e-06
1.67801e-07
1.86461e-06
-1.94517e-08
1.86734e-06
-1.40551e-08
1.86158e-06
-7.01193e-08
1.86116e-06
-1.00068e-07
1.86562e-06
2.03925e-07
1.85773e-06
-1.32363e-07
1.86237e-06
9.51902e-08
1.85688e-06
-3.00005e-09
1.86211e-06
5.1799e-08
1.85394e-06
7.69839e-08
1.8593e-06
1.26183e-07
1.85607e-07
1.85326e-06
1.95187e-06
-9.05438e-08
1.95337e-06
1.17474e-07
1.95945e-06
5.5777e-07
1.95464e-06
-4.37354e-07
1.9478e-06
-2.05409e-07
1.94506e-06
-8.0732e-08
1.94229e-06
-1.44107e-07
1.95211e-06
1.57978e-07
1.95254e-06
-1.9873e-08
1.95479e-06
-1.63123e-08
1.94878e-06
-6.41085e-08
1.9476e-06
-9.88879e-08
1.95275e-06
1.98781e-07
1.94409e-06
-1.23706e-07
1.94933e-06
8.99538e-08
1.94231e-06
4.01428e-09
1.94755e-06
4.65642e-08
1.93883e-06
8.57049e-08
1.9428e-06
1.22208e-07
1.895e-07
1.93891e-06
2.04423e-06
-8.85857e-08
2.0467e-06
1.15005e-07
2.05442e-06
5.50046e-07
2.04823e-06
-4.31159e-07
2.04123e-06
-1.98411e-07
2.0397e-06
-7.92024e-08
2.03623e-06
-1.40636e-07
2.04482e-06
1.49386e-07
2.04471e-06
-1.97561e-08
2.0465e-06
-1.81115e-08
2.04046e-06
-5.80617e-08
2.03858e-06
-9.7015e-08
2.04461e-06
1.92757e-07
2.03524e-06
-1.14341e-07
2.04112e-06
8.4075e-08
2.03285e-06
1.22885e-08
2.03778e-06
4.16357e-08
2.02902e-06
9.44582e-08
2.03118e-06
1.20051e-07
1.91068e-07
2.02961e-06
2.14121e-06
-8.57962e-08
2.14451e-06
1.11703e-07
2.15354e-06
5.41017e-07
2.14604e-06
-4.23661e-07
2.13902e-06
-1.91388e-07
2.13848e-06
-7.86656e-08
2.13452e-06
-1.36673e-07
2.14197e-06
1.41936e-07
2.1415e-06
-1.92856e-08
2.14283e-06
-1.94444e-08
2.13693e-06
-5.21562e-08
2.13442e-06
-9.45111e-08
2.1414e-06
1.8578e-07
2.13136e-06
-1.04297e-07
2.13785e-06
7.7579e-08
2.12869e-06
2.14562e-08
2.133e-06
3.7319e-08
2.12479e-06
1.02671e-07
2.12496e-06
1.19884e-07
1.90381e-07
2.12564e-06
2.24306e-06
-8.237e-08
2.247e-06
1.07767e-07
2.25707e-06
5.30946e-07
2.24845e-06
-4.1504e-07
2.24145e-06
-1.84393e-07
2.24155e-06
-7.8763e-08
2.23737e-06
-1.32491e-07
2.24383e-06
1.35477e-07
2.2432e-06
-1.86616e-08
2.24406e-06
-2.02982e-08
2.23844e-06
-4.65339e-08
2.23533e-06
-9.14072e-08
2.24323e-06
1.77878e-07
2.23257e-06
-9.36333e-08
2.23956e-06
7.0593e-08
2.22991e-06
3.10995e-08
2.2333e-06
3.39338e-08
2.22615e-06
1.09822e-07
2.22441e-06
1.21616e-07
1.87799e-07
2.227e-06
2.35e-06
-7.84934e-08
2.35437e-06
1.03395e-07
2.36528e-06
5.20041e-07
2.35573e-06
-4.05493e-07
2.3488e-06
-1.77468e-07
2.34915e-06
-7.91091e-08
2.345e-06
-1.28342e-07
2.35062e-06
1.29855e-07
2.35004e-06
-1.80829e-08
2.35041e-06
-2.06588e-08
2.34517e-06
-4.13016e-08
2.34148e-06
-8.7713e-08
2.3502e-06
1.69162e-07
2.33903e-06
-8.24707e-08
2.34628e-06
6.33482e-08
2.3366e-06
4.07784e-08
2.33873e-06
3.18004e-08
2.33304e-06
1.15513e-07
2.32969e-06
1.24971e-07
1.83869e-07
2.33362e-06
2.46222e-06
-7.43191e-08
2.46688e-06
9.87405e-08
2.47845e-06
5.08466e-07
2.46814e-06
-3.95181e-07
2.46134e-06
-1.7067e-07
2.4616e-06
-7.93666e-08
2.45768e-06
-1.24419e-07
2.46258e-06
1.24951e-07
2.46222e-06
-1.77233e-08
2.46208e-06
-2.05141e-08
2.4573e-06
-3.6524e-08
2.45304e-06
-8.34508e-08
2.46239e-06
1.59812e-07
2.45091e-06
-7.0997e-08
2.45811e-06
5.61518e-08
2.44881e-06
5.00763e-08
2.44947e-06
3.11452e-08
2.44541e-06
1.19569e-07
2.44084e-06
1.29536e-07
1.79203e-07
2.44551e-06
2.57993e-06
-6.99562e-08
2.58477e-06
9.3905e-08
2.59689e-06
4.96344e-07
2.58591e-06
-3.84203e-07
2.57932e-06
-1.64077e-07
2.57923e-06
-7.92787e-08
2.57568e-06
-1.20867e-07
2.57994e-06
1.20691e-07
2.57993e-06
-1.77132e-08
2.57927e-06
-1.98627e-08
2.57496e-06
-3.2214e-08
2.5702e-06
-7.86916e-08
2.57995e-06
1.5007e-07
2.56841e-06
-5.946e-08
2.57521e-06
4.93551e-08
2.56665e-06
5.86364e-08
2.56574e-06
3.20542e-08
2.56325e-06
1.22053e-07
2.55798e-06
1.34804e-07
1.74387e-07
2.5628e-06
2.70335e-06
-6.54743e-08
2.70831e-06
8.89424e-08
2.7209e-06
4.83755e-07
2.7093e-06
-3.72602e-07
2.70299e-06
-1.57768e-07
2.70238e-06
-7.86667e-08
2.6993e-06
-1.17785e-07
2.70294e-06
1.17046e-07
2.70336e-06
-1.81305e-08
2.70222e-06
-1.87278e-08
2.69833e-06
-2.8323e-08
2.69321e-06
-7.35721e-08
2.70306e-06
1.4022e-07
2.69173e-06
-4.81237e-08
2.6978e-06
4.32813e-08
2.69021e-06
6.6228e-08
2.68782e-06
3.44404e-08
2.68666e-06
1.23213e-07
2.68122e-06
1.40246e-07
1.69899e-07
2.68571e-06
2.83271e-06
-6.09146e-08
2.83777e-06
8.38796e-08
2.85079e-06
4.70738e-07
2.83856e-06
-3.60378e-07
2.83262e-06
-1.5182e-07
2.83136e-06
-7.7411e-08
2.82883e-06
-1.15251e-07
2.83187e-06
1.14007e-07
2.83273e-06
-1.89971e-08
2.83118e-06
-1.71724e-08
2.82759e-06
-2.47387e-08
2.82231e-06
-6.82938e-08
2.83197e-06
1.3056e-07
2.82108e-06
-3.72333e-08
2.82621e-06
3.81574e-08
2.81965e-06
7.27868e-08
2.816e-06
3.8084e-08
2.81586e-06
1.23356e-07
2.81068e-06
1.45432e-07
1.66047e-07
2.81453e-06
2.96828e-06
-5.63029e-08
2.97343e-06
7.87347e-08
2.98686e-06
4.57304e-07
2.97399e-06
-3.47507e-07
2.96848e-06
-1.46303e-07
2.96649e-06
-7.54283e-08
2.96456e-06
-1.13318e-07
2.967e-06
1.11569e-07
2.96828e-06
-2.0277e-08
2.96642e-06
-1.53113e-08
2.96297e-06
-2.12911e-08
2.95777e-06
-6.30966e-08
2.96696e-06
1.21376e-07
2.95669e-06
-2.69661e-08
2.96078e-06
3.40677e-08
2.95515e-06
7.84097e-08
2.95052e-06
4.27178e-08
2.95115e-06
1.22724e-07
2.94652e-06
1.50065e-07
1.6299e-07
2.94958e-06
3.11036e-06
-5.16596e-08
3.11557e-06
7.35282e-08
3.12943e-06
4.43442e-07
3.11588e-06
-3.33954e-07
3.11085e-06
-1.4128e-07
3.10808e-06
-7.26564e-08
3.10678e-06
-1.12017e-07
3.10865e-06
1.097e-07
3.11025e-06
-2.18722e-08
3.10825e-06
-1.33203e-08
3.10473e-06
-1.77614e-08
3.09985e-06
-5.82231e-08
3.10835e-06
1.12883e-07
3.09875e-06
-1.73702e-08
3.10186e-06
3.09548e-08
3.09701e-06
8.32613e-08
3.0916e-06
4.81284e-08
3.09285e-06
1.2147e-07
3.08897e-06
1.53954e-07
1.6078e-07
3.09118e-06
3.25926e-06
-4.7006e-08
3.26449e-06
6.829e-08
3.27881e-06
4.29128e-07
3.26453e-06
-3.19672e-07
3.26006e-06
-1.36815e-07
3.25645e-06
-6.90482e-08
3.25579e-06
-1.11349e-07
3.25716e-06
1.08326e-07
3.25891e-06
-2.36198e-08
3.25702e-06
-1.14373e-08
3.25316e-06
-1.39016e-08
3.24882e-06
-5.3877e-08
3.25652e-06
1.05182e-07
3.2475e-06
-8.34901e-09
3.24979e-06
2.86633e-08
3.24556e-06
8.74864e-08
3.2395e-06
5.41922e-08
3.24127e-06
1.19702e-07
3.23828e-06
1.56939e-07
1.594e-07
3.23966e-06
3.41529e-06
-4.23677e-08
3.42052e-06
6.30628e-08
3.43532e-06
4.14325e-07
3.42027e-06
-3.04617e-07
3.41642e-06
-1.32964e-07
3.41194e-06
-6.4575e-08
3.41188e-06
-1.11283e-07
3.41288e-06
1.07325e-07
3.41455e-06
-2.52939e-08
3.41306e-06
-9.94483e-09
3.40864e-06
-9.48158e-09
3.40492e-06
-5.01584e-08
3.41187e-06
9.82359e-08
3.40322e-06
3.02282e-10
3.40483e-06
2.70504e-08
3.40122e-06
9.11e-08
3.39454e-06
6.08732e-08
3.39668e-06
1.17553e-07
3.39478e-06
1.58841e-07
1.58791e-07
3.39539e-06
3.57882e-06
-3.77753e-08
3.58398e-06
5.79034e-08
3.59932e-06
3.98983e-07
3.58344e-06
-2.88739e-07
3.58025e-06
-1.29776e-07
3.57491e-06
-5.92355e-08
3.57537e-06
-1.11739e-07
3.57618e-06
1.06517e-07
3.5775e-06
-2.66187e-08
3.57669e-06
-9.1358e-09
3.57155e-06
-4.34096e-09
3.56841e-06
-4.70103e-08
3.5748e-06
9.1847e-08
3.56623e-06
8.86245e-09
3.56726e-06
2.60292e-08
3.56434e-06
9.40174e-08
3.55708e-06
6.8129e-08
3.55941e-06
1.15227e-07
3.55878e-06
1.59472e-07
1.58828e-07
3.55874e-06
3.7502e-06
-3.32657e-08
3.75521e-06
5.28855e-08
3.77116e-06
3.83041e-07
3.75441e-06
-2.71996e-07
3.75192e-06
-1.27278e-07
3.74574e-06
-5.30633e-08
3.7466e-06
-1.12592e-07
3.74745e-06
1.05667e-07
3.74811e-06
-2.72786e-08
3.74825e-06
-9.28246e-09
3.74234e-06
1.56743e-09
3.73954e-06
-4.4209e-08
3.74566e-06
8.57277e-08
3.73694e-06
1.75797e-08
3.73733e-06
2.56438e-08
3.73526e-06
9.60864e-08
3.72761e-06
7.57822e-08
3.72977e-06
1.13067e-07
3.73057e-06
1.58673e-07
1.5928e-07
3.73011e-06
3.92981e-06
-2.88829e-08
3.93459e-06
4.81009e-08
3.95121e-06
3.66422e-07
3.93357e-06
-2.54354e-07
3.93176e-06
-1.25468e-07
3.92483e-06
-4.61416e-08
3.9259e-06
-1.13653e-07
3.92707e-06
1.0449e-07
3.92675e-06
-2.69533e-08
3.92803e-06
-1.05616e-08
3.92148e-06
8.11653e-09
3.91864e-06
-4.13775e-08
3.9248e-06
7.9577e-08
3.9158e-06
2.65756e-08
3.91536e-06
2.60877e-08
3.9143e-06
9.71438e-08
3.90656e-06
8.35159e-08
3.90817e-06
1.1146e-07
3.91042e-06
1.56428e-07
1.59766e-07
3.90993e-06
4.11804e-06
-2.46774e-08
4.12249e-06
4.36589e-08
4.13987e-06
3.49041e-07
4.12131e-06
-2.35796e-07
4.12014e-06
-1.24302e-07
4.11261e-06
-3.86083e-08
4.11363e-06
-1.14674e-07
4.11545e-06
1.02668e-07
4.11386e-06
-2.53613e-08
4.1163e-06
-1.29964e-08
4.10942e-06
1.49982e-08
4.10609e-06
-3.80569e-08
4.11249e-06
7.3185e-08
4.10329e-06
3.57733e-08
4.10173e-06
2.76463e-08
4.10179e-06
9.70865e-08
4.09437e-06
9.09381e-08
4.09513e-06
1.10698e-07
4.0986e-06
1.52954e-07
1.59802e-07
4.09857e-06
4.31533e-06
-2.07065e-08
4.3193e-06
3.9686e-08
4.33754e-06
3.30801e-07
4.31808e-06
-2.16331e-07
4.31746e-06
-1.23681e-07
4.30952e-06
-3.06718e-08
4.31019e-06
-1.1534e-07
4.31299e-06
9.98672e-08
4.30993e-06
-2.23075e-08
4.31337e-06
-1.643e-08
4.3066e-06
2.17695e-08
4.30233e-06
-3.37868e-08
4.309e-06
6.65099e-08
4.29986e-06
4.49132e-08
4.29695e-06
3.05539e-08
4.29808e-06
9.59561e-08
4.29139e-06
9.76321e-08
4.29119e-06
1.10894e-07
4.29545e-06
1.48698e-07
1.58922e-07
4.29633e-06
4.5221e-06
-1.70337e-08
4.52546e-06
3.63248e-08
4.54466e-06
3.11601e-07
4.52434e-06
-1.96007e-07
4.5241e-06
-1.23438e-07
4.51604e-06
-2.26195e-08
4.51597e-06
-1.15266e-07
4.52006e-06
9.57797e-08
4.51551e-06
-1.77608e-08
4.51958e-06
-2.04985e-08
4.51339e-06
2.79577e-08
4.50786e-06
-2.82578e-08
4.51462e-06
5.97475e-08
4.50594e-06
5.35931e-08
4.5016e-06
3.48952e-08
4.5036e-06
9.39606e-08
4.49799e-06
1.03244e-07
4.49693e-06
1.11953e-07
4.50143e-06
1.442e-07
1.56877e-07
4.50347e-06
4.73881e-06
-1.37261e-08
4.74141e-06
3.37231e-08
4.76165e-06
2.91363e-07
4.74058e-06
-1.74941e-07
4.74047e-06
-1.23328e-07
4.73266e-06
-1.48066e-08
4.73142e-06
-1.14031e-07
4.73704e-06
9.01614e-08
4.73116e-06
-1.18787e-08
4.73534e-06
-2.4678e-08
4.73014e-06
3.31533e-08
4.72326e-06
-2.13741e-08
4.72977e-06
5.32406e-08
4.72195e-06
6.1408e-08
4.71632e-06
4.05256e-08
4.71879e-06
9.14893e-08
4.71451e-06
1.07526e-07
4.71285e-06
1.13618e-07
4.71711e-06
1.39937e-07
1.53719e-07
4.72027e-06
4.96592e-06
-1.08532e-08
4.96762e-06
3.20279e-08
4.98894e-06
2.70047e-07
4.96733e-06
-1.53334e-07
4.96701e-06
-1.23012e-07
4.95986e-06
-7.64982e-09
4.95703e-06
-1.11206e-07
4.96429e-06
8.29045e-08
4.95744e-06
-5.0253e-09
4.96112e-06
-2.83617e-08
4.95717e-06
3.71066e-08
4.94905e-06
-1.32583e-08
4.95488e-06
4.74072e-08
4.94832e-06
6.79751e-08
4.94168e-06
4.71615e-08
4.9442e-06
8.89665e-08
4.94136e-06
1.10368e-07
4.93938e-06
1.15598e-07
4.94316e-06
1.36159e-07
1.4978e-07
4.9471e-06
5.20395e-06
-8.48388e-09
5.2046e-06
3.13767e-08
5.22697e-06
2.47677e-07
5.20514e-06
-1.31504e-07
5.20419e-06
-1.22063e-07
5.19815e-06
-1.60691e-09
5.19333e-06
-1.06395e-07
5.20215e-06
7.40917e-08
5.19487e-06
2.25139e-09
5.19745e-06
-3.09363e-08
5.19478e-06
3.97698e-08
5.18576e-06
-4.23478e-09
5.19052e-06
4.26473e-08
5.18546e-06
7.30372e-08
5.17821e-06
5.44092e-08
5.18042e-06
8.6756e-08
5.17899e-06
1.11798e-07
5.17696e-06
1.17624e-07
5.18019e-06
1.32932e-07
1.45481e-07
5.18449e-06
5.45339e-06
-6.6825e-09
5.45289e-06
3.18785e-08
5.4762e-06
2.24361e-07
5.4546e-06
-1.099e-07
5.45251e-06
-1.19971e-07
5.44802e-06
2.87475e-09
5.44103e-06
-9.9404e-08
5.45096e-06
6.41656e-08
5.44395e-06
9.26167e-09
5.44494e-06
-3.19254e-08
5.44348e-06
4.12338e-08
5.43391e-06
5.3288e-09
5.43731e-06
3.92509e-08
5.43384e-06
7.65049e-08
5.42641e-06
6.18377e-08
5.42803e-06
8.5134e-08
5.42792e-06
1.11909e-07
5.42606e-06
1.19486e-07
5.42875e-06
1.3024e-07
1.41119e-07
5.43311e-06
5.71478e-06
-5.50266e-09
5.71305e-06
3.36024e-08
5.73712e-06
2.00299e-07
5.71632e-06
-8.9109e-08
5.71253e-06
-1.1618e-07
5.70998e-06
5.42755e-09
5.70091e-06
-9.03331e-08
5.71118e-06
5.3897e-08
5.70509e-06
1.53536e-08
5.70423e-06
-3.10674e-08
5.70375e-06
4.17122e-08
5.69413e-06
1.49501e-08
5.69607e-06
3.73109e-08
5.69403e-06
7.8539e-08
5.68675e-06
6.91188e-08
5.68765e-06
8.42405e-08
5.68871e-06
1.10849e-07
5.6872e-06
1.2099e-07
5.68937e-06
1.28074e-07
1.36828e-07
5.69366e-06
5.98867e-06
-4.984e-09
5.98571e-06
3.65634e-08
6.01022e-06
1.75794e-07
5.9909e-06
-6.97908e-08
5.98488e-06
-1.10157e-07
5.98443e-06
5.87405e-09
5.97371e-06
-7.96169e-08
5.98338e-06
4.42327e-08
5.97864e-06
2.00903e-08
5.976e-06
-2.84283e-08
5.97611e-06
4.16072e-08
5.96698e-06
2.40831e-08
5.96754e-06
3.67499e-08
5.96664e-06
7.94367e-08
5.95981e-06
7.5949e-08
5.95985e-06
8.41984e-08
5.96187e-06
1.08826e-07
5.96099e-06
1.21878e-07
5.96261e-06
1.26454e-07
1.32664e-07
5.96677e-06
6.27565e-06
-5.14898e-09
6.27149e-06
4.07254e-08
6.29606e-06
1.51229e-07
6.27884e-06
-5.25768e-08
6.27023e-06
-1.01543e-07
6.27176e-06
4.34463e-09
6.26013e-06
-6.79864e-08
6.26822e-06
3.61426e-08
6.26507e-06
2.32416e-08
6.2609e-06
-2.42667e-08
6.26113e-06
4.13789e-08
6.25287e-06
3.23409e-08
6.25234e-06
3.72868e-08
6.25229e-06
7.94822e-08
6.24615e-06
8.20943e-08
6.2453e-06
8.50501e-08
6.24798e-06
1.06142e-07
6.24798e-06
1.21877e-07
6.2491e-06
1.25332e-07
1.28731e-07
6.25304e-06
6.57632e-06
-5.99855e-09
6.57104e-06
4.60026e-08
6.59523e-06
1.27041e-07
6.58065e-06
-3.7995e-08
6.56941e-06
-9.03007e-08
6.57242e-06
1.32744e-09
6.56075e-06
-5.63183e-08
6.56651e-06
3.03876e-08
6.56481e-06
2.49411e-08
6.55966e-06
-1.91139e-08
6.55954e-06
4.14932e-08
6.55235e-06
3.95288e-08
6.55105e-06
3.85929e-08
6.55167e-06
7.8862e-08
6.54636e-06
8.74015e-08
6.54468e-06
8.67291e-08
6.54763e-06
1.03197e-07
6.54874e-06
1.20768e-07
6.54954e-06
1.24529e-07
1.25188e-07
6.55308e-06
6.8913e-06
-7.51014e-09
6.88503e-06
5.22745e-08
6.90839e-06
1.0368e-07
6.89684e-06
-2.64387e-08
6.88323e-06
-7.66937e-08
6.88698e-06
-2.42736e-09
6.87613e-06
-4.54672e-08
6.87919e-06
2.73324e-08
6.87847e-06
2.56584e-08
6.87314e-06
-1.37879e-08
6.87241e-06
4.22289e-08
6.86602e-06
4.59135e-08
6.86427e-06
4.03504e-08
6.86542e-06
7.77047e-08
6.86109e-06
9.17368e-08
6.85872e-06
8.90941e-08
6.86152e-06
1.00404e-07
6.86378e-06
1.18505e-07
6.8646e-06
1.2371e-07
1.22189e-07
6.8676e-06
7.22126e-06
-9.63372e-09
7.21413e-06
5.94006e-08
7.23623e-06
8.15842e-08
7.22796e-06
-1.81709e-08
7.21251e-06
-6.12437e-08
7.21615e-06
-6.07008e-09
7.20679e-06
-3.60996e-08
7.20722e-06
2.68989e-08
7.20679e-06
2.609e-08
7.202e-06
-8.99473e-09
7.20071e-06
4.35136e-08
7.19471e-06
5.19167e-08
7.19258e-06
4.24738e-08
7.19422e-06
7.60679e-08
7.19097e-06
9.49878e-08
7.18814e-06
9.19225e-08
7.19045e-06
9.81007e-08
7.19367e-06
1.15276e-07
7.19493e-06
1.22458e-07
1.19761e-07
7.19735e-06
7.56688e-06
-1.22858e-08
7.55907e-06
6.72098e-08
7.57947e-06
6.11857e-08
7.57461e-06
-1.33144e-08
7.55805e-06
-4.46793e-08
7.56072e-06
-8.74385e-09
7.55328e-06
-2.86609e-08
7.55151e-06
2.86738e-08
7.55067e-06
2.69251e-08
7.54669e-06
-5.01587e-09
7.5452e-06
4.50049e-08
7.53934e-06
5.7775e-08
7.53669e-06
4.51301e-08
7.53872e-06
7.40348e-08
7.5367e-06
9.7012e-08
7.53366e-06
9.49562e-08
7.53526e-06
9.65054e-08
7.53909e-06
1.11438e-07
7.54111e-06
1.20446e-07
1.17733e-07
7.54313e-06
7.92887e-06
-1.53474e-08
7.92071e-06
7.53695e-08
7.93887e-06
4.30301e-08
7.93741e-06
-1.18539e-08
7.92056e-06
-2.78315e-08
7.92154e-06
-9.71975e-09
7.91621e-06
-2.33376e-08
7.91288e-06
3.20047e-08
7.91098e-06
2.8823e-08
7.90777e-06
-1.79969e-09
7.90655e-06
4.62255e-08
7.9008e-06
6.35177e-08
7.89741e-06
4.85269e-08
7.89962e-06
7.18192e-08
7.89895e-06
9.76826e-08
7.89602e-06
9.78905e-08
7.89681e-06
9.57127e-08
7.90085e-06
1.074e-07
7.90375e-06
1.17547e-07
1.15789e-07
7.90569e-06
8.30799e-06
-1.86607e-08
8.29999e-06
8.33729e-08
8.31526e-06
2.77596e-08
8.31701e-06
-1.36067e-08
8.30075e-06
-1.15696e-08
8.29951e-06
-8.47938e-09
8.29616e-06
-1.99816e-08
8.29208e-06
3.60842e-08
8.2887e-06
3.22017e-08
8.28587e-06
1.02921e-09
8.28535e-06
4.67433e-08
8.27993e-06
6.89353e-08
8.27566e-06
5.27995e-08
8.27774e-06
6.97424e-08
8.27842e-06
9.69975e-08
8.27596e-06
1.00355e-07
8.27597e-06
9.57046e-08
8.27983e-06
1.03534e-07
8.28352e-06
1.13861e-07
1.13579e-07
8.28573e-06
8.70504e-06
-2.20346e-08
8.69779e-06
9.06146e-08
8.70956e-06
1.59899e-08
8.71415e-06
-1.81923e-08
8.69934e-06
3.24068e-09
8.69563e-06
-4.76598e-09
8.69378e-06
-1.81312e-08
8.68979e-06
4.00741e-08
8.68485e-06
3.71392e-08
8.68181e-06
4.0698e-09
8.68224e-06
4.63114e-08
8.6775e-06
7.36695e-08
8.67243e-06
5.78764e-08
8.67397e-06
6.82007e-08
8.67585e-06
9.51215e-08
8.6742e-06
1.02e-07
8.67362e-06
9.62868e-08
8.67699e-06
1.00166e-07
8.68121e-06
1.09635e-07
1.1086e-07
8.68393e-06
9.12084e-06
-2.52519e-08
9.11492e-06
9.65279e-08
9.12276e-06
8.15023e-09
9.12966e-06
-2.50901e-08
9.11707e-06
1.58321e-08
9.11089e-06
1.4138e-09
9.10986e-06
-1.71035e-08
9.1067e-06
4.32324e-08
9.10041e-06
4.34306e-08
9.09656e-06
7.92439e-09
9.09791e-06
4.49605e-08
9.09426e-06
7.73136e-08
9.08864e-06
6.35043e-08
9.08933e-06
6.75032e-08
9.09203e-06
9.24238e-08
9.09149e-06
1.02546e-07
9.09062e-06
9.71566e-08
9.09329e-06
9.74908e-08
9.09774e-06
1.05187e-07
1.07563e-07
9.10104e-06
9.5563e-06
-2.80927e-08
9.55222e-06
1.00609e-07
9.55594e-06
4.43244e-09
9.56446e-06
-3.36145e-08
9.55475e-06
2.55478e-08
9.54632e-06
9.83528e-09
9.54532e-06
-1.60987e-08
9.54348e-06
4.50711e-08
9.53641e-06
5.05062e-08
9.53127e-06
1.30609e-08
9.53316e-06
4.30727e-08
9.53094e-06
7.95252e-08
9.52518e-06
6.92671e-08
9.52485e-06
6.78342e-08
9.52795e-06
8.93224e-08
9.52859e-06
1.01908e-07
9.5278e-06
9.79426e-08
9.52975e-06
9.5547e-08
9.5341e-06
1.00832e-07
1.03774e-07
9.53789e-06
1.00124e-05
-3.03575e-08
1.00105e-05
1.02474e-07
1.00103e-05
4.67495e-09
1.00195e-05
-4.28249e-08
1.00132e-05
3.18898e-08
1.0003e-05
1.99793e-08
1.00012e-05
-1.42808e-08
1.00009e-05
4.53662e-08
9.99373e-06
5.76778e-08
9.9872e-06
1.95961e-08
9.98892e-06
4.13465e-08
9.98834e-06
8.01069e-08
9.98292e-06
7.46929e-08
9.98155e-06
6.91967e-08
9.98467e-06
8.62064e-08
9.98637e-06
1.00206e-07
9.98604e-06
9.82766e-08
9.98734e-06
9.4242e-08
9.99134e-06
9.68363e-08
9.96544e-08
9.99546e-06
1.04902e-05
-3.19037e-08
1.04907e-05
1.01945e-07
1.04871e-05
8.24985e-09
1.04958e-05
-5.14387e-08
1.04931e-05
3.45681e-08
1.0482e-05
3.10369e-08
1.04787e-05
-1.09187e-08
1.04798e-05
4.41888e-08
1.04733e-05
6.41929e-08
1.04655e-05
2.74044e-08
1.04664e-05
4.04308e-08
1.04673e-05
7.92313e-08
1.04627e-05
7.9331e-08
1.04605e-05
7.13703e-08
1.04633e-05
8.34407e-08
1.04658e-05
9.76499e-08
1.04662e-05
9.79075e-08
1.04671e-05
9.33245e-08
1.04705e-05
9.33992e-08
9.54022e-08
1.04748e-05
1.09908e-05
-3.26567e-08
1.09936e-05
9.90841e-08
1.09877e-05
1.41394e-08
1.09944e-05
-5.80514e-08
1.09952e-05
3.36829e-08
1.09844e-05
4.18412e-08
1.0979e-05
-5.4665e-09
1.09812e-05
4.20016e-08
1.09759e-05
6.94245e-08
1.09674e-05
3.59656e-08
1.09671e-05
4.07489e-08
1.09688e-05
7.74787e-08
1.09653e-05
8.28166e-08
1.09627e-05
7.4026e-08
1.09648e-05
8.12646e-08
1.0968e-05
9.45041e-08
1.09691e-05
9.67735e-08
1.097e-05
9.24484e-08
1.09728e-05
9.05896e-08
9.12789e-08
1.09769e-05
1.15153e-05
-3.2612e-08
1.15202e-05
9.41584e-08
1.15131e-05
2.1239e-08
1.15166e-05
-6.15484e-08
1.15206e-05
2.97385e-08
1.15112e-05
5.12459e-08
1.15037e-05
2.0415e-09
1.1506e-05
3.97169e-08
1.15024e-05
7.29497e-08
1.14938e-05
4.4571e-08
1.14921e-05
4.24818e-08
1.14942e-05
7.54206e-08
1.14919e-05
8.50958e-08
1.14891e-05
7.68368e-08
1.14906e-05
7.97182e-08
1.1494e-05
9.1068e-08
1.14959e-05
9.48913e-08
1.1497e-05
9.13515e-08
1.14993e-05
8.82785e-08
8.75157e-08
1.15031e-05
1.2065e-05
-3.18188e-08
1.20716e-05
8.75927e-08
1.20643e-05
2.85413e-08
1.20641e-05
-6.13759e-08
1.20701e-05
2.37205e-08
1.20632e-05
5.82305e-08
1.20541e-05
1.10855e-08
1.20555e-05
3.83058e-08
1.20537e-05
7.47453e-08
1.20457e-05
5.26306e-08
1.20428e-05
4.53221e-08
1.20447e-05
7.35153e-08
1.20434e-05
8.63886e-08
1.20407e-05
7.95492e-08
1.20417e-05
7.87587e-08
1.20451e-05
8.76032e-08
1.20477e-05
9.23293e-08
1.20492e-05
8.99089e-08
1.20512e-05
8.62081e-08
8.42353e-08
1.20545e-05
1.26412e-05
-3.038e-08
1.26488e-05
7.99049e-08
1.26421e-05
3.52727e-08
1.26385e-05
-5.77298e-08
1.26452e-05
1.69992e-08
1.26411e-05
6.23147e-08
1.26316e-05
2.06329e-08
1.26314e-05
3.84494e-08
1.26308e-05
7.53268e-08
1.26238e-05
5.96424e-08
1.26204e-05
4.87655e-08
1.26219e-05
7.1977e-08
1.26213e-05
8.69735e-08
1.26188e-05
8.20368e-08
1.26192e-05
7.83708e-08
1.26226e-05
8.42748e-08
1.26257e-05
8.92025e-08
1.26276e-05
8.80383e-08
1.26296e-05
8.4184e-08
8.13681e-08
1.26324e-05
1.3245e-05
-2.84301e-08
1.32533e-05
7.15626e-08
1.32477e-05
4.09431e-08
1.32412e-05
-5.12791e-08
1.32473e-05
1.09333e-08
1.3246e-05
6.35475e-08
1.32371e-05
2.95762e-08
1.32352e-05
4.03097e-08
1.32351e-05
7.54773e-08
1.32293e-05
6.54413e-08
1.32257e-05
5.23501e-08
1.3227e-05
7.06424e-08
1.32269e-05
8.70677e-08
1.32247e-05
8.42658e-08
1.32245e-05
7.85662e-08
1.32275e-05
8.12522e-08
1.32311e-05
8.56633e-08
1.32335e-05
8.5645e-08
1.32355e-05
8.2115e-08
7.8722e-08
1.32382e-05
1.38779e-05
-2.61441e-08
1.38863e-05
6.31032e-08
1.38821e-05
4.51872e-08
1.38736e-05
-4.27746e-08
1.38781e-05
6.42639e-09
1.38791e-05
6.2571e-08
1.38716e-05
3.70663e-08
1.38685e-05
4.33568e-08
1.3868e-05
7.59731e-08
1.38632e-05
7.02763e-08
1.38598e-05
5.57066e-08
1.38612e-05
6.92672e-08
1.38617e-05
8.65637e-08
1.38597e-05
8.62792e-08
1.3859e-05
7.93092e-08
1.38615e-05
7.87444e-08
1.38652e-05
8.19437e-08
1.38682e-05
8.26674e-08
1.38704e-05
7.98621e-08
7.61884e-08
1.3873e-05
1.45412e-05
-2.36982e-08
1.45492e-05
5.50857e-08
1.45466e-05
4.78419e-08
1.45369e-05
-3.30767e-08
1.45393e-05
4.00251e-09
1.45417e-05
6.02211e-08
1.4536e-05
4.27278e-08
1.45327e-05
4.66594e-08
1.45315e-05
7.71337e-08
1.45271e-05
7.47287e-08
1.45239e-05
5.88609e-08
1.45255e-05
6.76592e-08
1.4527e-05
8.51443e-08
1.45253e-05
8.79602e-08
1.45241e-05
8.05068e-08
1.45258e-05
7.697e-08
1.45295e-05
7.82837e-08
1.4533e-05
7.92147e-08
1.45356e-05
7.72241e-08
7.37016e-08
1.45381e-05
1.52364e-05
-2.12498e-08
1.52436e-05
4.79667e-08
1.52424e-05
4.89858e-08
1.52324e-05
-2.30433e-08
1.52326e-05
3.77856e-09
1.52353e-05
5.74783e-08
1.52315e-05
4.6529e-08
1.52287e-05
4.9508e-08
1.52272e-05
7.86477e-08
1.52228e-05
7.90944e-08
1.52194e-05
6.23178e-08
1.52211e-05
6.58802e-08
1.52237e-05
8.2587e-08
1.52229e-05
8.87888e-08
1.52213e-05
8.20647e-08
1.52223e-05
7.6013e-08
1.52256e-05
7.49673e-08
1.52292e-05
7.55483e-08
1.52324e-05
7.41087e-08
7.11002e-08
1.5235e-05
1.5965e-05
-1.89007e-08
1.59709e-05
4.20584e-08
1.5971e-05
4.88687e-08
1.59614e-05
-1.34439e-08
1.59596e-05
5.634e-09
1.59619e-05
5.51222e-08
1.59595e-05
4.88946e-08
1.59576e-05
5.14491e-08
1.59564e-05
7.98942e-08
1.59521e-05
8.33897e-08
1.59481e-05
6.62843e-08
1.59495e-05
6.44912e-08
1.5953e-05
7.90458e-08
1.59537e-05
8.81109e-08
1.59521e-05
8.36391e-08
1.59524e-05
7.57585e-08
1.59551e-05
7.22945e-08
1.59587e-05
7.1874e-08
1.59621e-05
7.06958e-08
6.81969e-08
1.5965e-05
1.67284e-05
-1.6668e-08
1.67331e-05
3.73768e-08
1.67339e-05
4.80521e-08
1.67253e-05
-4.85717e-09
1.67218e-05
9.0989e-09
1.67232e-05
5.3737e-08
1.67215e-05
5.05743e-08
1.67207e-05
5.22481e-08
1.67204e-05
8.01906e-08
1.67164e-05
8.73662e-08
1.6712e-05
7.06962e-08
1.67124e-05
6.41719e-08
1.67165e-05
7.48833e-08
1.67189e-05
8.57731e-08
1.67181e-05
8.44237e-08
1.67177e-05
7.61181e-08
1.67197e-05
7.03327e-08
1.67231e-05
6.84446e-08
1.67266e-05
6.71909e-08
6.50046e-08
1.67298e-05
1.75282e-05
-1.45015e-08
1.7532e-05
3.35977e-08
1.75328e-05
4.72158e-08
1.75254e-05
2.53442e-09
1.75211e-05
1.33783e-08
1.75212e-05
5.36998e-08
1.75194e-05
5.23637e-08
1.75195e-05
5.20921e-08
1.75207e-05
7.90751e-08
1.75176e-05
9.04246e-08
1.75129e-05
7.54026e-08
1.7512e-05
6.50601e-08
1.75159e-05
7.09681e-08
1.75197e-05
8.2023e-08
1.75204e-05
8.37219e-08
1.75198e-05
7.66718e-08
1.75211e-05
6.90045e-08
1.75241e-05
6.55014e-08
1.75276e-05
6.37099e-08
6.17102e-08
1.75309e-05
1.83662e-05
-1.23539e-08
1.83693e-05
3.04669e-08
1.83699e-05
4.66857e-08
1.83633e-05
9.04622e-09
1.83592e-05
1.74959e-08
1.83581e-05
5.48514e-08
1.83555e-05
5.49255e-08
1.83559e-05
5.16913e-08
1.83585e-05
7.64819e-08
1.8357e-05
9.1889e-08
1.83523e-05
8.01016e-08
1.83505e-05
6.69013e-08
1.83534e-05
6.81096e-08
1.83579e-05
7.74609e-08
1.83603e-05
8.13625e-08
1.83603e-05
7.6643e-08
1.8361e-05
6.83074e-08
1.83635e-05
6.30121e-08
1.83667e-05
6.04689e-08
5.83881e-08
1.83701e-05
1.92442e-05
-1.01791e-08
1.92468e-05
2.78479e-08
1.92471e-05
4.64682e-08
1.92411e-05
1.50143e-08
1.92374e-05
2.11804e-08
1.9236e-05
5.62886e-08
1.92326e-05
5.83185e-08