/*--------------------------------*- C++ -*----------------------------------*\
| =========                 |                                                 |
| \\      /  F ield         | OpenFOAM: The Open Source CFD Toolbox           |
|  \\    /   O peration     | Version:  2106                                  |
|   \\  /    A nd           | Website:  www.openfoam.com                      |
|    \\/     M anipulation  |                                                 |
\*---------------------------------------------------------------------------*/
FoamFile
{
    version     2.0;
    format      ascii;
    arch        "LSB;label=32;scalar=64";
    class       surfaceScalarField;
    location    "0.04";
    object      phi;
}
// * * * * * * * * * * * * * * * * * * * * * * * * * * * * * * * * * * * * * //

dimensions      [0 3 -1 0 0 0 0];

oriented        oriented;

internalField   nonuniform List<scalar> 
19000
(
1.16842e-06
-7.59548e-11
1.16837e-06
3.79985e-10
1.16849e-06
-1.61124e-09
1.16787e-06
7.85423e-09
1.1698e-06
-2.81706e-08
1.16418e-06
8.83784e-08
1.17742e-06
-2.23448e-07
1.15292e-06
4.3476e-07
1.18822e-06
-6.54266e-07
1.15685e-06
5.49026e-07
1.17356e-06
-1.80391e-07
1.17639e-06
-3.68532e-07
1.17132e-06
2.45152e-07
1.15404e-06
1.70623e-07
1.17134e-06
-2.22919e-07
1.16466e-06
-2.61176e-07
1.17342e-06
1.14024e-07
1.15112e-06
2.07831e-07
1.14768e-06
-1.43773e-08
-2.01932e-07
1.11707e-06
1.22427e-06
-8.42355e-11
1.22421e-06
4.35456e-10
1.22435e-06
-1.74831e-09
1.22372e-06
8.48967e-09
1.22559e-06
-3.00441e-08
1.22042e-06
9.35468e-08
1.23244e-06
-2.35469e-07
1.2128e-06
4.54399e-07
1.24382e-06
-6.85284e-07
1.22446e-06
5.68389e-07
1.23398e-06
-1.89909e-07
1.23404e-06
-3.68599e-07
1.22406e-06
2.5513e-07
1.22094e-06
1.73748e-07
1.22378e-06
-2.25761e-07
1.22732e-06
-2.64711e-07
1.21875e-06
1.2259e-07
1.22735e-06
1.99228e-07
1.19363e-06
1.9342e-08
-2.0799e-07
1.19969e-06
1.28279e-06
-9.20554e-11
1.28274e-06
4.87751e-10
1.28285e-06
-1.86149e-09
1.28233e-06
9.01567e-09
1.28374e-06
-3.14597e-08
1.28014e-06
9.71443e-08
1.28805e-06
-2.43374e-07
1.27795e-06
4.64497e-07
1.29541e-06
-7.02738e-07
1.29441e-06
5.69381e-07
1.29096e-06
-1.86456e-07
1.29291e-06
-3.70547e-07
1.28483e-06
2.63213e-07
1.28787e-06
1.70708e-07
1.27954e-06
-2.17433e-07
1.28416e-06
-2.69331e-07
1.28017e-06
1.26577e-07
1.28602e-06
1.93383e-07
1.26372e-06
4.16363e-08
-1.96416e-07
1.25215e-06
1.34411e-06
-9.93538e-11
1.34406e-06
5.36456e-10
1.34415e-06
-1.94862e-09
1.34374e-06
9.42409e-09
1.34467e-06
-3.23901e-08
1.34268e-06
9.9137e-08
1.34629e-06
-2.46986e-07
1.34473e-06
4.66061e-07
1.34799e-06
-7.06006e-07
1.35882e-06
5.58554e-07
1.3482e-06
-1.75838e-07
1.3484e-06
-3.7074e-07
1.34942e-06
2.62186e-07
1.35248e-06
1.67655e-07
1.33948e-06
-2.04433e-07
1.33928e-06
-2.69136e-07
1.3434e-06
1.22455e-07
1.34844e-06
1.88348e-07
1.33238e-06
5.76921e-08
-1.76209e-07
1.31218e-06
1.40836e-06
-1.06251e-10
1.40831e-06
5.82505e-10
1.40838e-06
-2.01513e-09
1.40806e-06
9.74307e-09
1.40863e-06
-3.29533e-08
1.40781e-06
9.99515e-08
1.40823e-06
-2.474e-07
1.41229e-06
4.61996e-07
1.4051e-06
-6.98814e-07
1.42091e-06
5.42738e-07
1.40933e-06
-1.64253e-07
1.4056e-06
-3.67015e-07
1.41297e-06
2.54819e-07
1.41746e-06
1.63161e-07
1.40302e-06
-1.89991e-07
1.39823e-06
-2.64343e-07
1.40483e-06
1.15859e-07
1.41231e-06
1.80861e-07
1.40031e-06
6.96929e-08
-1.51758e-07
1.37586e-06
1.47568e-06
-1.12917e-10
1.47564e-06
6.27174e-10
1.47569e-06
-2.06821e-09
1.47543e-06
1.00083e-08
1.47577e-06
-3.32944e-08
1.47564e-06
1.00074e-07
1.47417e-06
-2.45922e-07
1.48129e-06
4.54869e-07
1.46799e-06
-6.85516e-07
1.48538e-06
5.25352e-07
1.47513e-06
-1.54002e-07
1.4682e-06
-3.60083e-07
1.47705e-06
2.45971e-07
1.48419e-06
1.5602e-07
1.4702e-06
-1.76007e-07
1.46203e-06
-2.56168e-07
1.46806e-06
1.09822e-07
1.4768e-06
1.72121e-07
1.4695e-06
7.70011e-08
-1.25382e-07
1.44312e-06
1.54622e-06
-1.19472e-10
1.54618e-06
6.71372e-10
1.54622e-06
-2.11291e-09
1.54599e-06
1.02447e-08
1.54621e-06
-3.35132e-08
1.54645e-06
9.98277e-08
1.54397e-06
-2.43441e-07
1.55267e-06
4.46168e-07
1.53621e-06
-6.69055e-07
1.55428e-06
5.07284e-07
1.54498e-06
-1.44704e-07
1.5365e-06
-3.516e-07
1.54472e-06
2.37755e-07
1.55372e-06
1.47021e-07
1.54091e-06
-1.63206e-07
1.53056e-06
-2.45815e-07
1.53556e-06
1.04818e-07
1.5439e-06
1.63786e-07
1.54071e-06
8.01862e-08
-9.89674e-08
1.5143e-06
1.62014e-06
-1.25975e-10
1.62009e-06
7.15525e-10
1.62013e-06
-2.15152e-09
1.61991e-06
1.04639e-08
1.62005e-06
-3.36566e-08
1.62052e-06
9.93621e-08
1.61747e-06
-2.40388e-07
1.6271e-06
4.36538e-07
1.60892e-06
-6.50878e-07
1.62769e-06
4.88516e-07
1.61846e-06
-1.35477e-07
1.60962e-06
-3.42756e-07
1.61704e-06
2.30334e-07
1.62678e-06
1.37279e-07
1.61502e-06
-1.51446e-07
1.6034e-06
-2.34191e-07
1.60792e-06
1.00292e-07
1.61499e-06
1.56716e-07
1.61462e-06
8.05533e-08
-7.36004e-08
1.58926e-06
1.69758e-06
-1.3244e-10
1.69754e-06
7.59751e-10
1.69757e-06
-2.18464e-09
1.69736e-06
1.06695e-08
1.69745e-06
-3.374e-08
1.69808e-06
9.87278e-08
1.69461e-06
-2.36918e-07
1.70495e-06
4.26198e-07
1.68562e-06
-6.31542e-07
1.7052e-06
4.68932e-07
1.69551e-06
-1.25791e-07
1.68686e-06
-3.34104e-07
1.69376e-06
2.23435e-07
1.7036e-06
1.27435e-07
1.69261e-06
-1.40453e-07
1.68014e-06
-2.21723e-07
1.68483e-06
9.56034e-08
1.69041e-06
1.5114e-07
1.69171e-06
7.92489e-08
-4.97646e-08
1.66788e-06
1.77873e-06
-1.38865e-10
1.77868e-06
8.0403e-10
1.77871e-06
-2.21208e-09
1.77852e-06
1.08617e-08
1.77854e-06
-3.37652e-08
1.77934e-06
9.79345e-08
1.77549e-06
-2.33069e-07
1.78648e-06
4.15206e-07
1.76617e-06
-6.1123e-07
1.78661e-06
4.4849e-07
1.77628e-06
-1.15457e-07
1.768e-06
-3.25828e-07
1.77456e-06
2.16877e-07
1.78422e-06
1.1778e-07
1.7739e-06
-1.30135e-07
1.76068e-06
-2.08504e-07
1.76588e-06
9.03988e-08
1.77008e-06
1.46945e-07
1.77225e-06
7.70765e-08
-2.77588e-08
1.75024e-06
1.86375e-06
-1.45237e-10
1.86371e-06
8.48292e-10
1.86373e-06
-2.23344e-09
1.86355e-06
1.10396e-08
1.86352e-06
-3.37296e-08
1.86447e-06
9.69791e-08
1.86025e-06
-2.28844e-07
1.87188e-06
4.03578e-07
1.85065e-06
-5.90004e-07
1.87194e-06
4.27204e-07
1.86093e-06
-1.04453e-07
1.85306e-06
-3.17958e-07
1.85937e-06
2.10563e-07
1.86868e-06
1.08478e-07
1.85908e-06
-1.20544e-07
1.84509e-06
-1.94513e-07
1.8509e-06
8.45928e-08
1.85397e-06
1.43871e-07
1.85642e-06
7.46277e-08
-7.88962e-09
1.83655e-06
1.95285e-06
-1.51542e-10
1.9528e-06
8.92453e-10
1.95282e-06
-2.2482e-09
1.95265e-06
1.1202e-08
1.95255e-06
-3.363e-08
1.95368e-06
9.58561e-08
1.94907e-06
-2.24237e-07
1.96133e-06
3.91321e-07
1.93922e-06
-5.679e-07
1.9613e-06
4.05123e-07
1.94967e-06
-9.28194e-08
1.94217e-06
-3.10461e-07
1.94832e-06
2.04417e-07
1.95712e-06
9.9675e-08
1.94836e-06
-1.11781e-07
1.93359e-06
-1.79741e-07
1.93992e-06
7.82625e-08
1.94218e-06
1.41609e-07
1.94443e-06
7.23791e-08
9.54003e-09
1.927e-06
2.0462e-06
-1.57764e-10
2.04615e-06
9.36422e-10
2.04616e-06
-2.25582e-09
2.04601e-06
1.13476e-08
2.04585e-06
-3.34626e-08
2.04714e-06
9.45602e-08
2.04215e-06
-2.19242e-07
2.05502e-06
3.78448e-07
2.03208e-06
-5.44958e-07
2.05489e-06
3.82311e-07
2.0427e-06
-8.06278e-08
2.03552e-06
-3.03278e-07
2.04158e-06
1.98351e-07
2.04974e-06
9.15183e-08
2.0419e-06
-1.03946e-07
2.02639e-06
-1.64228e-07
2.03306e-06
7.15887e-08
2.03488e-06
1.39793e-07
2.03651e-06
7.075e-08
2.43165e-08
2.02173e-06
2.14401e-06
-1.63884e-10
2.14396e-06
9.801e-10
2.14396e-06
-2.25576e-09
2.14384e-06
1.14752e-08
2.1436e-06
-3.32241e-08
2.14507e-06
9.30865e-08
2.13969e-06
-2.13857e-07
2.15316e-06
3.64974e-07
2.12943e-06
-5.21226e-07
2.15289e-06
3.58851e-07
2.14023e-06
-6.79703e-08
2.13328e-06
-2.96325e-07
2.13937e-06
1.9226e-07
2.14673e-06
8.41592e-08
2.1399e-06
-9.71143e-08
2.12374e-06
-1.48074e-07
2.1305e-06
6.48281e-08
2.13228e-06
1.38016e-07
2.13295e-06
7.00772e-08
3.63778e-08
2.12089e-06
2.24649e-06
-1.69883e-10
2.24645e-06
1.02339e-09
2.24644e-06
-2.24743e-09
2.24633e-06
1.15834e-08
2.24602e-06
-3.29111e-08
2.24768e-06
9.14313e-08
2.2419e-06
-2.0808e-07
2.25595e-06
3.50924e-07
2.23149e-06
-4.96766e-07
2.2555e-06
3.34841e-07
2.24249e-06
-5.49579e-08
2.23566e-06
-2.89498e-07
2.2419e-06
1.86026e-07
2.24831e-06
7.77438e-08
2.24252e-06
-9.13269e-08
2.22589e-06
-1.31444e-07
2.23244e-06
5.82867e-08
2.23456e-06
1.35894e-07
2.23411e-06
7.05288e-08
4.58753e-08
2.22461e-06
2.35388e-06
-1.75737e-10
2.35384e-06
1.06617e-09
2.35382e-06
-2.23024e-09
2.35373e-06
1.16711e-08
2.35334e-06
-3.25206e-08
2.35518e-06
8.9592e-08
2.34902e-06
-2.01916e-07
2.36361e-06
3.36328e-07
2.3385e-06
-4.71653e-07
2.36294e-06
3.10397e-07
2.34971e-06
-4.17201e-08
2.34288e-06
-2.82677e-07
2.34939e-06
1.7952e-07
2.35473e-06
7.24026e-08
2.34998e-06
-8.6579e-08
2.3331e-06
-1.1456e-07
2.33907e-06
5.23115e-08
2.34191e-06
1.33058e-07
2.34029e-06
7.21478e-08
5.31513e-08
2.33302e-06
2.4664e-06
-1.81421e-10
2.46636e-06
1.10836e-09
2.46633e-06
-2.2036e-09
2.46627e-06
1.17371e-08
2.4658e-06
-3.20497e-08
2.46782e-06
8.75674e-08
2.46127e-06
-1.95369e-07
2.47637e-06
3.21227e-07
2.45069e-06
-4.45973e-07
2.47544e-06
2.85652e-07
2.46212e-06
-2.84042e-08
2.45517e-06
-2.75723e-07
2.46208e-06
1.72611e-07
2.46624e-06
6.82421e-08
2.46248e-06
-8.28159e-08
2.44562e-06
-9.77023e-08
2.45067e-06
4.72556e-08
2.45451e-06
1.29222e-07
2.45185e-06
7.48066e-08
5.87342e-08
2.44627e-06
2.5843e-06
-1.86906e-10
2.58426e-06
1.14982e-09
2.58422e-06
-2.16689e-09
2.58418e-06
1.17802e-08
2.58362e-06
-3.1496e-08
2.58583e-06
8.53577e-08
2.57892e-06
-1.8845e-07
2.59448e-06
3.05666e-07
2.56833e-06
-4.19828e-07
2.59323e-06
2.60756e-07
2.58e-06
-1.51742e-08
2.57276e-06
-2.68487e-07
2.5802e-06
1.65172e-07
2.58311e-06
6.53327e-08
2.58022e-06
-7.99262e-08
2.56371e-06
-8.11976e-08
2.56753e-06
4.34423e-08
2.57253e-06
1.24222e-07
2.5691e-06
7.82383e-08
6.32333e-08
2.5646e-06
2.70783e-06
-1.92163e-10
2.70779e-06
1.19046e-09
2.70775e-06
-2.1195e-09
2.70773e-06
1.17996e-08
2.70709e-06
-3.08576e-08
2.70948e-06
8.2965e-08
2.70221e-06
-1.81174e-07
2.71817e-06
2.89703e-07
2.69167e-06
-3.93332e-07
2.71655e-06
2.35876e-07
2.70359e-06
-2.20785e-09
2.69591e-06
-2.60814e-07
2.70399e-06
1.57092e-07
2.70563e-06
6.36964e-08
2.70345e-06
-7.77425e-08
2.68764e-06
-6.5392e-08
2.68998e-06
4.11033e-08
2.69612e-06
1.18082e-07
2.69232e-06
8.20341e-08
6.72385e-08
2.68832e-06
2.83727e-06
-1.97158e-10
2.83723e-06
1.23016e-09
2.83718e-06
-2.06083e-09
2.83718e-06
1.17944e-08
2.83646e-06
-3.01329e-08
2.83903e-06
8.03933e-08
2.83141e-06
-1.73561e-07
2.84771e-06
2.73403e-07
2.821e-06
-3.66614e-07
2.84568e-06
2.11192e-07
2.83317e-06
1.03063e-08
2.8249e-06
-2.52548e-07
2.83371e-06
1.48286e-07
2.8341e-06
6.32989e-08
2.83241e-06
-7.60438e-08
2.81765e-06
-5.06328e-08
2.81838e-06
4.03685e-08
2.82545e-06
1.11009e-07
2.82179e-06
8.56969e-08
7.12155e-08
2.81781e-06
2.9729e-06
-2.01855e-10
2.97286e-06
1.26881e-09
2.97279e-06
-1.99029e-09
2.97282e-06
1.17638e-08
2.97201e-06
-2.93211e-08
2.97475e-06
7.76488e-08
2.96683e-06
-1.65634e-07
2.98339e-06
2.56838e-07
2.95659e-06
-3.39815e-07
2.98089e-06
1.86898e-07
2.96902e-06
2.21728e-08
2.96001e-06
-2.43538e-07
2.9696e-06
1.38699e-07
2.96885e-06
6.40484e-08
2.96737e-06
-7.45642e-08
2.95399e-06
-3.72558e-08
2.95309e-06
4.12657e-08
2.96074e-06
1.03362e-07
2.95775e-06
8.86931e-08
7.5459e-08
2.9535e-06
3.11501e-06
-2.06217e-10
3.11497e-06
1.30633e-09
3.11489e-06
-1.90731e-09
3.11495e-06
1.17074e-08
3.11405e-06
-2.84223e-08
3.11696e-06
7.474e-08
3.10875e-06
-1.57424e-07
3.12549e-06
2.40093e-07
3.09876e-06
-3.13088e-07
3.12246e-06
1.63198e-07
3.11144e-06
3.31969e-08
3.10156e-06
-2.33653e-07
3.11193e-06
1.28326e-07
3.11019e-06
6.57863e-08
3.10863e-06
-7.30064e-08
3.09691e-06
-2.5536e-08
3.0945e-06
4.36797e-08
3.10226e-06
9.56025e-08
3.1004e-06
9.05533e-08
8.00492e-08
3.09581e-06
3.26391e-06
-2.10203e-10
3.26388e-06
1.34262e-09
3.26378e-06
-1.81137e-09
3.26386e-06
1.1625e-08
3.26288e-06
-2.74369e-08
3.26594e-06
7.1678e-08
3.25748e-06
-1.48964e-07
3.27432e-06
2.23259e-07
3.24782e-06
-2.86596e-07
3.27072e-06
1.403e-07
3.26073e-06
4.31887e-08
3.24986e-06
-2.22788e-07
3.26098e-06
1.17212e-07
3.25846e-06
6.83082e-08
3.25653e-06
-7.10838e-08
3.24665e-06
-1.56478e-08
3.24296e-06
4.73658e-08
3.25035e-06
8.82159e-08
3.24994e-06
9.09557e-08
8.48538e-08
3.24514e-06
3.41993e-06
-2.13773e-10
3.4199e-06
1.3776e-09
3.41979e-06
-1.70199e-09
3.4199e-06
1.15167e-08
3.41883e-06
-2.63666e-08
3.42203e-06
6.84764e-08
3.41336e-06
-1.40296e-07
3.43019e-06
2.06435e-07
3.4041e-06
-2.60509e-07
3.42598e-06
1.18417e-07
3.4172e-06
5.19742e-08
3.40529e-06
-2.10879e-07
3.41704e-06
1.05461e-07
3.414e-06
7.13479e-08
3.41141e-06
-6.84987e-08
3.40346e-06
-7.69103e-09
3.39884e-06
5.19871e-08
3.4054e-06
8.16537e-08
3.40657e-06
8.97854e-08
8.95475e-08
3.40188e-06
3.58341e-06
-2.16882e-10
3.58338e-06
1.41121e-09
3.58326e-06
-1.57873e-09
3.58339e-06
1.13828e-08
3.58224e-06
-2.52141e-08
3.58556e-06
6.51517e-08
3.57673e-06
-1.31464e-07
3.59344e-06
1.89727e-07
3.56793e-06
-2.35003e-07
3.5886e-06
9.77524e-08
3.58117e-06
5.94022e-08
3.5682e-06
-1.97913e-07
3.58042e-06
9.32432e-08
3.57716e-06
7.46121e-08
3.57367e-06
-6.50124e-08
3.56761e-06
-1.62861e-09
3.56249e-06
5.71049e-08
3.56784e-06
7.62999e-08
3.57047e-06
8.71578e-08
9.367e-08
3.56635e-06
3.75471e-06
-2.19488e-10
3.75468e-06
1.44342e-09
3.75454e-06
-1.44127e-09
3.7547e-06
1.12242e-08
3.75347e-06
-2.39828e-08
3.75689e-06
6.1723e-08
3.74795e-06
-1.22519e-07
3.76443e-06
1.73246e-07
3.73968e-06
-2.10253e-07
3.75893e-06
7.85014e-08
3.75298e-06
6.5353e-08
3.739e-06
-1.83928e-07
3.75146e-06
8.07762e-08
3.74828e-06
7.77935e-08
3.74371e-06
-6.04425e-08
3.73941e-06
2.67644e-09
3.73425e-06
6.22605e-08
3.73815e-06
7.23974e-08
3.74193e-06
8.33855e-08
9.67333e-08
3.73886e-06
3.93419e-06
-2.21548e-10
3.93416e-06
1.47422e-09
3.93401e-06
-1.28933e-09
3.93419e-06
1.1042e-08
3.93288e-06
-2.26775e-08
3.9364e-06
5.82122e-08
3.92739e-06
-1.13516e-07
3.94353e-06
1.57108e-07
3.91971e-06
-1.86431e-07
3.93737e-06
6.08398e-08
3.93298e-06
6.97457e-08
3.91807e-06
-1.69021e-07
3.93052e-06
6.83228e-08
3.92773e-06
8.05868e-08
3.92197e-06
-5.46838e-08
3.91919e-06
5.45465e-09
3.91444e-06
6.70193e-08
3.91681e-06
7.00178e-08
3.92127e-06
7.89263e-08
9.83268e-08
3.91968e-06
4.12225e-06
-2.23017e-10
4.12222e-06
1.50363e-09
4.12206e-06
-1.12276e-09
4.12226e-06
1.0838e-08
4.12089e-06
-2.13041e-08
4.12445e-06
5.46438e-08
4.11545e-06
-1.04512e-07
4.13113e-06
1.41428e-07
4.1084e-06
-1.63702e-07
4.12432e-06
4.49169e-08
4.12152e-06
7.25475e-08
4.10585e-06
-1.53348e-07
4.118e-06
5.61756e-08
4.11586e-06
8.27224e-08
4.10892e-06
-4.77452e-08
4.10734e-06
7.03622e-09
4.10337e-06
7.09856e-08
4.10431e-06
6.90807e-08
4.10894e-06
7.43007e-08
9.82149e-08
4.10905e-06
4.3193e-06
-2.23856e-10
4.31928e-06
1.5317e-09
4.31909e-06
-9.41522e-10
4.31932e-06
1.06141e-08
4.31788e-06
-1.98695e-08
4.32148e-06
5.10446e-08
4.31254e-06
-9.5568e-08
4.32765e-06
1.2632e-07
4.30616e-06
-1.42216e-07
4.32023e-06
3.08504e-08
4.319e-06
7.37756e-08
4.30277e-06
-1.37115e-07
4.31429e-06
4.46514e-08
4.31305e-06
8.39592e-08
4.30503e-06
-3.97265e-08
4.30427e-06
7.80302e-09
4.30139e-06
7.38634e-08
4.30112e-06
6.93547e-08
4.30541e-06
7.00109e-08
9.63879e-08
4.30723e-06
4.52577e-06
-2.24024e-10
4.52575e-06
1.55853e-09
4.52555e-06
-7.45698e-10
4.52579e-06
1.03731e-08
4.5243e-06
-1.83817e-08
4.52791e-06
4.74435e-08
4.51908e-06
-8.67469e-08
4.53351e-06
1.11896e-07
4.5134e-06
-1.22105e-07
4.52553e-06
1.87192e-08
4.5258e-06
7.35029e-08
4.50926e-06
-1.20578e-07
4.51987e-06
3.40506e-08
4.51968e-06
8.41409e-08
4.51079e-06
-3.08288e-08
4.51044e-06
8.15404e-09
4.50883e-06
7.54726e-08
4.50768e-06
7.05028e-08
4.51122e-06
6.64677e-08
9.30636e-08
4.51455e-06
4.74211e-06
-2.23485e-10
4.74209e-06
1.58427e-09
4.74188e-06
-5.35504e-10
4.74213e-06
1.0118e-08
4.7406e-06
-1.68498e-08
4.74417e-06
4.38707e-08
4.73554e-06
-7.81106e-08
4.74918e-06
9.82584e-08
4.73055e-06
-1.0348e-07
4.74071e-06
8.55873e-09
4.74236e-06
7.18552e-08
4.7258e-06
-1.04019e-07
4.7352e-06
2.46459e-08
4.73616e-06
8.31868e-08
4.72666e-06
-2.13283e-08
4.72635e-06
8.46e-09
4.72605e-06
7.5775e-08
4.72443e-06
7.21244e-08
4.72697e-06
6.39311e-08
8.86449e-08
4.73138e-06
4.9688e-06
-2.22206e-10
4.96877e-06
1.60913e-09
4.96855e-06
-3.113e-10
4.96881e-06
9.85248e-09
4.96725e-06
-1.52836e-08
4.97076e-06
4.03578e-08
4.96237e-06
-6.97203e-08
4.97513e-06
8.55002e-08
4.95807e-06
-8.64223e-08
4.96627e-06
3.57635e-10
4.96912e-06
6.90094e-08
4.95284e-06
-8.77393e-08
4.96083e-06
1.66577e-08
4.9629e-06
8.11104e-08
4.95313e-06
-1.15587e-08
4.95255e-06
9.03778e-09
4.95347e-06
7.48576e-08
4.95178e-06
7.38166e-08
4.95323e-06
6.24781e-08
8.36433e-08
4.95823e-06
5.20631e-06
-2.20159e-10
5.20629e-06
1.63334e-09
5.20605e-06
-7.35886e-11
5.20632e-06
9.58053e-09
5.20473e-06
-1.36938e-08
5.20816e-06
3.69365e-08
5.20007e-06
-6.16341e-08
5.21187e-06
7.37013e-08
5.19643e-06
-7.09833e-08
5.20273e-06
-5.9414e-09
5.20656e-06
6.51821e-08
5.19086e-06
-7.20388e-08
5.19727e-06
1.02477e-08
5.20037e-06
7.80047e-08
5.19069e-06
-1.87592e-09
5.1896e-06
1.01216e-08
5.19155e-06
7.29115e-08
5.19014e-06
7.52244e-08
5.19061e-06
6.20135e-08
7.85842e-08
5.19567e-06
5.45519e-06
-2.17319e-10
5.45516e-06
1.65724e-09
5.45491e-06
1.76989e-10
5.45519e-06
9.30663e-09
5.45358e-06
-1.20916e-08
5.45688e-06
3.36381e-08
5.44915e-06
-5.39053e-08
5.45993e-06
6.2925e-08
5.44613e-06
-5.71813e-08
5.45063e-06
-1.0443e-08
5.45519e-06
6.06198e-08
5.44034e-06
-5.71907e-08
5.4451e-06
5.48939e-09
5.44906e-06
7.40461e-08
5.43981e-06
7.37393e-09
5.43809e-06
1.18436e-08
5.4408e-06
7.01974e-08
5.43995e-06
7.60783e-08
5.43965e-06
6.23107e-08
7.39164e-08
5.44432e-06
5.71595e-06
-2.13668e-10
5.71593e-06
1.6812e-09
5.71567e-06
4.39658e-10
5.71594e-06
9.03565e-09
5.71434e-06
-1.04884e-08
5.71748e-06
3.04931e-08
5.71016e-06
-4.65808e-08
5.71986e-06
5.32167e-08
5.70768e-06
-4.50007e-08
5.71053e-06
-1.32917e-08
5.71557e-06
5.55835e-08
5.70181e-06
-4.3433e-08
5.70492e-06
2.38045e-09
5.7095e-06
6.94662e-08
5.701e-06
1.58784e-08
5.6986e-06
1.42355e-08
5.70179e-06
6.7009e-08
5.70165e-06
7.62178e-08
5.7009e-06
6.30672e-08
6.99488e-08
5.70486e-06
5.98919e-06
-2.09191e-10
5.98916e-06
1.70565e-09
5.98889e-06
7.13524e-10
5.98915e-06
8.77266e-09
5.98756e-06
-8.89546e-09
5.99052e-06
2.75296e-08
5.98364e-06
-3.97002e-08
5.99226e-06
4.46021e-08
5.98165e-06
-3.43948e-08
5.98302e-06
-1.46629e-08
5.98828e-06
5.03311e-08
5.97579e-06
-3.09504e-08
5.97733e-06
8.38438e-10
5.98227e-06
6.45298e-08
5.97476e-06
2.33914e-08
5.97176e-06
1.72337e-08
5.97513e-06
6.36362e-08
5.97576e-06
7.55935e-08
5.97486e-06
6.39627e-08
6.6822e-08
5.97799e-06
6.27548e-06
-2.03878e-10
6.27546e-06
1.73108e-09
6.27517e-06
9.97591e-10
6.27542e-06
8.52296e-09
6.27385e-06
-7.32392e-09
6.27661e-06
2.47733e-08
6.2702e-06
-3.3294e-08
6.27772e-06
3.70862e-08
6.26861e-06
-2.52848e-08
6.26871e-06
-1.47617e-08
6.27393e-06
4.51103e-08
6.26285e-06
-1.98683e-08
6.26297e-06
7.1109e-10
6.268e-06
5.95045e-08
6.26164e-06
2.97534e-08
6.25818e-06
2.06937e-08
6.26147e-06
6.03374e-08
6.26282e-06
7.42513e-08
6.26207e-06
6.47131e-08
6.45155e-08
6.26437e-06
6.57546e-06
-1.97722e-10
6.57544e-06
1.75806e-09
6.57514e-06
1.29079e-09
6.57537e-06
8.29187e-09
6.57383e-06
-5.78415e-09
6.57636e-06
2.22462e-08
6.57045e-06
-2.73828e-08
6.57688e-06
3.06528e-08
6.56916e-06
-1.75657e-08
6.56821e-06
-1.38028e-08
6.57318e-06
4.01315e-08
6.56355e-06
-1.02369e-08
6.56248e-06
1.78327e-09
6.56734e-06
5.46435e-08
6.5622e-06
3.48922e-08
6.55848e-06
2.44212e-08
6.5615e-06
5.73153e-08
6.56344e-06
7.23068e-08
6.56305e-06
6.51077e-08
6.28839e-08
6.56468e-06
6.88978e-06
-1.90719e-10
6.88975e-06
1.78719e-09
6.88945e-06
1.59199e-09
6.88966e-06
8.08466e-09
6.88816e-06
-4.28566e-09
6.89044e-06
1.99662e-08
6.88504e-06
-2.19767e-08
6.89042e-06
2.52649e-08
6.88397e-06
-1.11079e-08
6.88217e-06
-1.20113e-08
6.88673e-06
3.55727e-08
6.87854e-06
-2.04573e-09
6.87652e-06
3.80459e-09
6.881e-06
5.01634e-08
6.87708e-06
3.8815e-08
6.8733e-06
2.8204e-08
6.87591e-06
5.47027e-08
6.8783e-06
6.99161e-08
6.87838e-06
6.50251e-08
6.17097e-08
6.87956e-06
7.21913e-06
-1.82865e-10
7.2191e-06
1.81911e-09
7.21879e-06
1.90007e-09
7.21897e-06
7.90638e-09
7.21752e-06
-2.83667e-09
7.21954e-06
1.79463e-08
7.21464e-06
-1.70755e-08
7.21903e-06
2.08688e-08
7.2137e-06
-5.7711e-09
7.21129e-06
-9.60188e-09
7.21529e-06
3.15681e-08
7.20848e-06
4.76879e-09
7.20577e-06
6.51085e-09
7.20971e-06
4.62267e-08
7.20692e-06
4.16019e-08
7.20329e-06
3.1837e-08
7.20543e-06
5.25609e-08
7.2081e-06
6.72476e-08
7.20869e-06
6.44289e-08
6.07597e-08
7.20964e-06
7.56422e-06
-1.74156e-10
7.56418e-06
1.85449e-09
7.56387e-06
2.21391e-09
7.56401e-06
7.76171e-09
7.56262e-06
-1.44394e-09
7.56437e-06
1.61946e-08
7.55996e-06
-1.26688e-08
7.56344e-06
1.73949e-08
7.55907e-06
-1.40374e-09
7.55625e-06
-6.77869e-09
7.55961e-06
2.82051e-08
7.55406e-06
1.03189e-08
7.55093e-06
9.64139e-09
7.55422e-06
4.29343e-08
7.55244e-06
4.33884e-08
7.54913e-06
3.51424e-08
7.5508e-06
5.08871e-08
7.55359e-06
6.44589e-08
7.55467e-06
6.33504e-08
5.98317e-08
7.5556e-06
7.9258e-06
-1.6458e-10
7.92576e-06
1.89402e-09
7.92544e-06
2.53246e-09
7.92555e-06
7.65485e-09
7.92422e-06
-1.12618e-10
7.9257e-06
1.47142e-08
7.92177e-06
-8.73727e-09
7.9244e-06
1.47602e-08
7.92085e-06
2.14565e-09
7.91779e-06
-3.71833e-09
7.92047e-06
2.55232e-08
7.91605e-06
1.47473e-08
7.91273e-06
1.2959e-08
7.91534e-06
4.03237e-08
7.91438e-06
4.43452e-08
7.91154e-06
3.79851e-08
7.9128e-06
4.96285e-08
7.91558e-06
6.16811e-08
7.91706e-06
6.18653e-08
5.87811e-08
7.91811e-06
8.30467e-06
-1.54119e-10
8.30463e-06
1.93841e-09
8.3043e-06
2.85472e-09
8.30437e-06
7.58939e-09
8.3031e-06
1.15394e-09
8.30432e-06
1.35021e-08
8.30083e-06
-5.2524e-09
8.30272e-06
1.28726e-08
8.29984e-06
5.0277e-09
8.29669e-06
-5.76524e-10
8.2987e-06
2.35211e-08
8.29523e-06
1.82161e-08
8.29192e-06
1.6262e-08
8.29387e-06
3.83758e-08
8.29356e-06
4.46562e-08
8.29127e-06
4.02806e-08
8.2922e-06
4.86975e-08
8.29487e-06
5.9011e-08
8.29666e-06
6.00702e-08
5.75286e-08
8.29791e-06
8.70165e-06
-1.42747e-10
8.7016e-06
1.98833e-09
8.70128e-06
3.17985e-09
8.7013e-06
7.56815e-09
8.7001e-06
2.35416e-09
8.70105e-06
1.25511e-08
8.69798e-06
-2.18006e-09
8.69921e-06
1.16382e-08
8.69686e-06
7.37369e-09
8.69376e-06
2.52878e-09
8.69512e-06
2.21593e-08
8.69244e-06
2.08936e-08
8.68931e-06
1.93916e-08
8.69066e-06
3.70255e-08
8.69082e-06
4.44996e-08
8.6891e-06
4.1996e-08
8.68981e-06
4.79895e-08
8.69231e-06
5.65087e-08
8.69432e-06
5.80643e-08
5.60521e-08
8.6958e-06
9.11761e-06
-1.30421e-10
9.11755e-06
2.04443e-09
9.11722e-06
3.50711e-09
9.1172e-06
7.59316e-09
9.11606e-06
3.48822e-09
9.11677e-06
1.18483e-08
9.11407e-06
5.20375e-10
9.11475e-06
1.09591e-08
9.11282e-06
9.30458e-09
9.10984e-06
5.50767e-09
9.11063e-06
2.13701e-08
9.10858e-06
2.29414e-08
9.10573e-06
2.22346e-08
9.10658e-06
3.61764e-08
9.10705e-06
4.40321e-08
9.1059e-06
4.31431e-08
9.10649e-06
4.73992e-08
9.1088e-06
5.42006e-08
9.11093e-06
5.59367e-08
5.43703e-08
9.11261e-06
9.55345e-06
-1.17083e-10
9.55338e-06
2.10731e-09
9.55305e-06
3.83592e-09
9.55298e-06
7.66549e-09
9.55191e-06
4.55789e-09
9.55238e-06
1.13785e-08
9.55001e-06
2.88885e-09
9.55023e-06
1.07412e-08
9.54861e-06
1.09252e-08
9.54582e-06
8.2956e-09
9.54612e-06
2.10688e-08
9.54456e-06
2.45049e-08
9.54207e-06
2.47217e-08
9.54254e-06
3.57156e-08
9.54319e-06
4.33804e-08
9.54256e-06
4.37687e-08
9.54313e-06
4.68337e-08
9.54524e-06
5.20851e-08
9.54742e-06
5.37596e-08
5.25252e-08
9.54926e-06
1.00101e-05
-1.02656e-10
1.00101e-05
2.17748e-09
1.00097e-05
4.16583e-09
1.00096e-05
7.7853e-09
1.00086e-05
5.56627e-09
1.00088e-05
1.11222e-08
1.00068e-05
4.96757e-09
1.00066e-05
1.08945e-08
1.00052e-05
1.23217e-08
1.00027e-05
1.08529e-08
1.00026e-05
2.11608e-08
1.00014e-05
2.57074e-08
9.99927e-06
2.68214e-08
9.99946e-06
3.55266e-08
1.00002e-05
4.26368e-08
1e-05
4.39418e-08
1.00006e-05
4.62201e-08
1.00026e-05
5.01405e-08
1.00048e-05
5.15862e-08
5.0567e-08
1.00067e-05
1.04886e-05
-8.70432e-11
1.04885e-05
2.25537e-09
1.04882e-05
4.49651e-09
1.0488e-05
7.95182e-09
1.04871e-05
6.51749e-09
1.04872e-05
1.10579e-08
1.04853e-05
6.79778e-09
1.04849e-05
1.1336e-08
1.04837e-05
1.35613e-08
1.04813e-05
1.31606e-08
1.0481e-05
2.15495e-08
1.048e-05
2.66473e-08
1.04783e-05
2.85329e-08
1.04783e-05
3.55015e-08
1.04791e-05
4.18604e-08
1.04793e-05
4.37418e-08
1.048e-05
4.55095e-08
1.04818e-05
4.83337e-08
1.0484e-05
4.94519e-08
4.85437e-08
1.0486e-05
1.099e-05
-7.01262e-11
1.09899e-05
2.34132e-09
1.09896e-05
4.82771e-09
1.09894e-05
8.16329e-09
1.09885e-05
7.4163e-09
1.09884e-05
1.1162e-08
1.09867e-05
8.41816e-09
1.09861e-05
1.19915e-08
1.0985e-05
1.46931e-08
1.09829e-05
1.52156e-08
1.09823e-05
2.21427e-08
1.09816e-05
2.73973e-08
1.09802e-05
2.98767e-08
1.09802e-05
3.55471e-08
1.0981e-05
4.10821e-08
1.09814e-05
4.32477e-08
1.09823e-05
4.4676e-08
1.0984e-05
4.66276e-08
1.09861e-05
4.73766e-08
4.64963e-08
1.09881e-05
1.15153e-05
-5.17666e-11
1.15153e-05
2.43549e-09
1.15149e-05
5.15926e-09
1.15147e-05
8.41708e-09
1.15138e-05
8.26775e-09
1.15136e-05
1.141e-08
1.15121e-05
9.86349e-09
1.15113e-05
1.27959e-08
1.15103e-05
1.57499e-08
1.15084e-05
1.70259e-08
1.15077e-05
2.28576e-08
1.15071e-05
2.80075e-08
1.15061e-05
3.08866e-08
1.15061e-05
3.559e-08
1.15068e-05
4.03113e-08
1.15076e-05
4.25309e-08
1.15085e-05
4.37131e-08
1.15102e-05
4.49873e-08
1.15122e-05
4.53681e-08
4.44562e-08
1.15142e-05
1.20658e-05
-3.18059e-11
1.20657e-05
2.53792e-09
1.20654e-05
5.49094e-09
1.20651e-05
8.70968e-09
1.20643e-05
9.07677e-09
1.20639e-05
1.17775e-08
1.20626e-05
1.11638e-08
1.20617e-05
1.36942e-08
1.20607e-05
1.67509e-08
1.20591e-05
1.86063e-08
1.20584e-05
2.36233e-08
1.20579e-05
2.85079e-08
1.20571e-05
3.16022e-08
1.20572e-05
3.55766e-08
1.20579e-05
3.95429e-08
1.20588e-05
4.16508e-08
1.20599e-05
4.26284e-08
1.20615e-05
4.33847e-08
1.20634e-05
4.3426e-08
4.24454e-08
1.20654e-05
1.26426e-05
-1.0073e-11
1.26425e-05
2.64846e-09
1.26421e-05
5.82244e-09
1.26418e-05
9.03678e-09
1.2641e-05
9.84776e-09
1.26406e-05
1.22403e-08
1.26394e-05
1.23436e-08
1.26384e-05
1.46403e-08
1.26375e-05
1.77039e-08
1.26361e-05
1.99743e-08
1.26354e-05
2.43824e-08
1.2635e-05
2.89138e-08
1.26345e-05
3.20635e-08
1.26346e-05
3.54718e-08
1.26354e-05
3.87646e-08
1.26364e-05
4.0653e-08
1.26376e-05
4.14384e-08
1.26392e-05
4.17993e-08
1.2641e-05
4.15451e-08
4.04779e-08
1.2643e-05
1.32469e-05
1.3597e-11
1.32468e-05
2.76679e-09
1.32465e-05
6.15331e-09
1.32461e-05
9.39337e-09
1.32454e-05
1.05843e-08
1.32448e-05
1.27751e-08
1.32438e-05
1.34221e-08
1.32428e-05
1.55969e-08
1.32419e-05
1.86086e-08
1.32407e-05
2.11481e-08
1.324e-05
2.50905e-08
1.32397e-05
2.92299e-08
1.32395e-05
3.23072e-08
1.32397e-05
3.5256e-08
1.32405e-05
3.79615e-08
1.32416e-05
3.95708e-08
1.32428e-05
4.01632e-08
1.32444e-05
4.02192e-08
1.32462e-05
3.97184e-08
3.85616e-08
1.32482e-05
1.38801e-05
3.93587e-11
1.388e-05
2.89236e-09
1.38797e-05
6.4828e-09
1.38793e-05
9.77377e-09
1.38786e-05
1.12888e-08
1.3878e-05
1.33599e-08
1.3877e-05
1.4413e-08
1.38761e-05
1.6534e-08
1.38752e-05
1.94591e-08
1.38742e-05
2.21439e-08
1.38736e-05
2.57151e-08
1.38734e-05
2.94545e-08
1.38733e-05
3.23646e-08
1.38737e-05
3.49214e-08
1.38745e-05
3.71204e-08
1.38757e-05
3.84265e-08
1.3877e-05
3.8823e-08
1.38786e-05
3.86391e-08
1.38804e-05
3.79389e-08
3.66998e-08
1.38822e-05
1.45436e-05
6.73523e-11
1.45435e-05
3.02442e-09
1.45432e-05
6.80983e-09
1.45428e-05
1.01717e-08
1.45421e-05
1.19623e-08
1.45415e-05
1.39742e-08
1.45406e-05
1.5325e-08
1.45397e-05
1.74277e-08
1.45389e-05
2.02458e-08
1.45381e-05
2.29755e-08
1.45375e-05
2.62339e-08
1.45374e-05
2.95826e-08
1.45375e-05
3.22614e-08
1.4538e-05
3.44681e-08
1.45389e-05
3.62314e-08
1.45401e-05
3.72348e-08
1.45414e-05
3.74359e-08
1.4543e-05
3.70585e-08
1.45448e-05
3.62013e-08
3.48932e-08
1.45466e-05
1.52389e-05
9.76844e-11
1.52387e-05
3.16194e-09
1.52384e-05
7.1329e-09
1.5238e-05
1.05805e-08
1.52373e-05
1.26046e-08
1.52367e-05
1.45988e-08
1.52359e-05
1.61625e-08
1.5235e-05
1.82593e-08
1.52343e-05
2.09577e-08
1.52337e-05
2.36537e-08
1.52333e-05
2.66325e-08
1.52332e-05
2.96085e-08
1.52335e-05
3.20173e-08
1.5234e-05
3.39016e-08
1.5235e-05
3.52883e-08
1.52362e-05
3.60051e-08
1.52376e-05
3.60169e-08
1.52392e-05
3.54803e-08
1.52409e-05
3.45018e-08
3.31408e-08
1.52427e-05
1.59673e-05
1.30411e-10
1.59672e-05
3.30363e-09
1.59668e-05
7.44999e-09
1.59664e-05
1.09927e-08
1.59658e-05
1.32135e-08
1.59652e-05
1.52164e-08
1.59644e-05
1.69262e-08
1.59637e-05
1.90141e-08
1.59631e-05
2.15834e-08
1.59625e-05
2.41862e-08
1.59623e-05
2.69029e-08
1.59623e-05
2.95274e-08
1.59627e-05
3.16478e-08
1.59634e-05
3.32299e-08
1.59644e-05
3.4289e-08
1.59656e-05
3.47434e-08
1.59671e-05
3.45777e-08
1.59686e-05
3.39085e-08
1.59703e-05
3.28382e-08
3.14412e-08
1.5972e-05
1.67306e-05
1.65518e-10
1.67304e-05
3.44789e-09
1.67301e-05
7.7585e-09
1.67297e-05
1.14008e-08
1.67291e-05
1.37858e-08
1.67285e-05
1.58107e-08
1.67279e-05
1.76138e-08
1.67272e-05
1.96801e-08
1.67267e-05
2.21124e-08
1.67263e-05
2.45787e-08
1.67261e-05
2.70416e-08
1.67263e-05
2.93361e-08
1.67268e-05
3.11645e-08
1.67276e-05
3.24621e-08
1.67286e-05
3.32344e-08
1.67299e-05
3.3454e-08
1.67314e-05
3.31271e-08
1.67329e-05
3.23474e-08
1.67346e-05
3.12095e-08
2.97923e-08
1.67362e-05
1.75303e-05
2.02906e-10
1.75302e-05
3.59284e-09
1.75299e-05
8.05522e-09
1.75295e-05
1.17965e-08
1.7529e-05
1.43166e-08
1.75284e-05
1.63669e-08
1.75278e-05
1.82208e-08
1.75272e-05
2.02479e-08
1.75268e-05
2.25352e-08
1.75265e-05
2.48348e-08
1.75265e-05
2.70481e-08
1.75268e-05
2.90335e-08
1.75274e-05
3.05763e-08
1.75283e-05
3.16074e-08
1.75294e-05
3.21273e-08
1.75307e-05
3.21408e-08
1.75322e-05
3.16716e-08
1.75337e-05
3.08011e-08
1.75353e-05
2.96156e-08
2.81925e-08
1.75369e-05
1.83683e-05
2.42369e-10
1.83682e-05
3.73625e-09
1.83679e-05
8.33631e-09
1.83675e-05
1.21715e-08
1.8367e-05
1.47998e-08
1.83665e-05
1.68713e-08
1.8366e-05
1.87414e-08
1.83655e-05
2.07095e-08
1.83652e-05
2.28441e-08
1.83651e-05
2.49569e-08
1.83652e-05
2.69241e-08
1.83656e-05
2.86204e-08
1.83663e-05
2.98907e-08
1.83673e-05
3.06744e-08
1.83684e-05
3.09722e-08
1.83698e-05
3.08071e-08
1.83712e-05
3.02158e-08
1.83727e-05
2.92728e-08
1.83743e-05
2.80565e-08
2.66398e-08
1.83758e-05
1.92463e-05
2.8358e-10
1.92462e-05
3.87553e-09
1.92459e-05
8.59724e-09
1.92456e-05
1.25168e-08
1.92452e-05
1.52282e-08
1.92447e-05
1.73114e-08
1.92443e-05
1.91685e-08
1.9244e-05
2.10582e-08