/*--------------------------------*- C++ -*----------------------------------*\
| =========                 |                                                 |
| \\      /  F ield         | OpenFOAM: The Open Source CFD Toolbox           |
|  \\    /   O peration     | Version:  2106                                  |
|   \\  /    A nd           | Website:  www.openfoam.com                      |
|    \\/     M anipulation  |                                                 |
\*---------------------------------------------------------------------------*/
FoamFile
{
    version     2.0;
    format      ascii;
    arch        "LSB;label=32;scalar=64";
    class       volScalarField;
    location    "0.335";
    object      p;
}
// * * * * * * * * * * * * * * * * * * * * * * * * * * * * * * * * * * * * * //

dimensions      [0 2 -2 0 0 0 0];

internalField   nonuniform List<scalar> 
9600
(
7.36567e-11
5.66621e-05
-0.00232322
-0.000634444
0.000410775
0.000454498
-0.00206965
0.000212319
4.2189e-06
0.000481764
5.53994e-05
0.00103417
0.000874069
0.0011187
0.00135791
0.00206901
0.00282345
0.00481
0.00647699
0.0117099
3.96355e-06
3.77862e-05
-0.00231854
-0.000624853
0.00039846
0.000451335
-0.00206069
0.000215276
5.46453e-06
0.000477544
5.67584e-05
0.0010292
0.000877094
0.00111628
0.00137338
0.00206549
0.00283919
0.00478217
0.00650151
0.0111129
6.7493e-06
1.71694e-05
-0.00230896
-0.00061265
0.000382989
0.000450012
-0.00204933
0.000217671
7.64699e-06
0.000471111
6.1349e-05
0.00102042
0.000881717
0.00111623
0.00138683
0.00206168
0.00285881
0.00474085
0.00649177
0.0105501
7.01563e-06
-3.057e-06
-0.00229535
-0.00059963
0.000365846
0.000447666
-0.00203608
0.000221731
9.99628e-06
0.000463805
6.96172e-05
0.00100976
0.000884672
0.00111766
0.00139732
0.00205523
0.00288029
0.00468977
0.006453
0.0100194
5.48937e-06
-2.23487e-05
-0.00227685
-0.000586475
0.000345303
0.000443497
-0.00201871
0.000227142
1.08179e-05
0.000455104
8.0697e-05
0.000996973
0.000885873
0.00111732
0.00140616
0.00204504
0.00290266
0.00463142
0.00639566
0.0095266
2.73586e-06
-4.00768e-05
-0.00225362
-0.000575221
0.000320932
0.000438444
-0.00199665
0.000231629
9.33342e-06
0.00044471
9.35108e-05
0.000982354
0.000886104
0.00111412
0.0014149
0.00203103
0.00292515
0.00456708
0.00631927
0.00906617
-8.62557e-07
-5.5901e-05
-0.00222683
-0.000566817
0.000293458
0.000433117
-0.00197063
0.000234072
6.14256e-06
0.000432796
0.000107429
0.000966456
0.000886571
0.00110809
0.00142451
0.0020139
0.00294593
0.00449855
0.00622075
0.0086329
-4.96789e-06
-7.0433e-05
-0.00219779
-0.000561049
0.000263758
0.000427804
-0.00194144
0.000234415
2.29595e-06
0.000419656
0.000122153
0.000949496
0.000888139
0.00109945
0.00143552
0.00199435
0.00296273
0.00442768
0.00609848
0.00822179
-9.30984e-06
-8.43802e-05
-0.00216743
-0.00055726
0.000232614
0.000422699
-0.00190974
0.000232823
-1.25267e-06
0.000405381
0.000137519
0.000931333
0.000891235
0.00108847
0.00144781
0.00197297
0.00297348
0.00435572
0.00595158
0.0078277
-1.37035e-05
-9.83769e-05
-0.00213624
-0.000554761
0.00020063
0.000417773
-0.00187612
0.000229478
-3.8204e-06
0.000389839
0.000153484
0.000911772
0.000896014
0.00107532
0.00146076
0.00195067
0.00297604
0.0042831
0.00578125
0.0074459
-1.80354e-05
-0.000112869
-0.00210436
-0.00055302
0.000168192
0.000412786
-0.00184104
0.000224579
-4.99979e-06
0.000372816
0.00017012
0.000890691
0.000902378
0.00106015
0.00147335
0.00192862
0.00296856
0.00420966
0.00559007
0.00707186
-2.22405e-05
-0.000128129
-0.00207177
-0.000551716
0.000135527
0.000407451
-0.00180476
0.000218265
-4.56904e-06
0.00035409
0.000187542
0.000868029
0.000910073
0.00104333
0.00148425
0.00190783
0.00294967
0.00413466
0.00538158
0.00670143
-2.62802e-05
-0.000144305
-0.00203845
-0.000550698
0.000102775
0.000401535
-0.00176743
0.000210572
-2.37708e-06
0.000333432
0.000205915
0.000843848
0.000918668
0.00102545
0.00149207
0.00188886
0.00291835
0.00405659
0.00516036
0.00633163
-3.01281e-05
-0.000161477
-0.00200436
-0.000549917
7.00346e-05
0.000394876
-0.00172914
0.000201444
1.7093e-06
0.000310689
0.000225047
0.000818337
0.000927587
0.00100726
0.0014953
0.00187195
0.00287453
0.00397314
0.00493097
0.00596072
-3.37629e-05
-0.000179689
-0.00196954
-0.00054936
3.73808e-05
0.000387369
-0.0016899
0.000190776
7.78513e-06
0.000285807
0.000244828
0.000791774
0.000936246
0.000989544
0.00149267
0.00185709
0.00281889
0.0038813
0.00469758
0.00558835
-3.71661e-05
-0.000198976
-0.00193401
-0.000549029
4.86849e-06
0.000378955
-0.00164974
0.000178432
1.59137e-05
0.000258794
0.000265
0.000764556
0.00094388
0.000973016
0.00148138
0.00184363
0.00275259
0.00377837
0.00446356
0.00521548
-4.03228e-05
-0.00021933
-0.00189785
-0.000548913
-2.74661e-05
0.000369613
-0.0016087
0.000164267
2.61465e-05
0.000229716
0.000285189
0.000737238
0.000949594
0.000958278
0.00146425
0.00182997
0.00267737
0.0036626
0.00423076
0.00484403
-4.32222e-05
-0.000240756
-0.00186114
-0.000548994
-5.96045e-05
0.000359351
-0.00156685
0.000148159
3.85007e-05
0.000198693
0.000304943
0.000710484
0.000952621
0.000945651
0.00144052
0.00181433
0.00259501
0.00353131
0.00399991
0.00447673
-4.58595e-05
-0.000263243
-0.00182399
-0.000549233
-9.15542e-05
0.00034821
-0.00152427
0.000130002
5.29665e-05
0.00016593
0.000323762
0.000684914
0.000952282
0.000935129
0.00141036
0.00179505
0.00250693
0.00338689
0.00377106
0.004117
-4.82354e-05
-0.00028676
-0.00178653
-0.000549562
-0.000123355
0.000336263
-0.00148108
0.000109683
6.95192e-05
0.000131726
0.00034108
0.000661045
0.000948068
0.000926526
0.00137381
0.00177027
0.00241404
0.00322889
0.00354369
0.00376877
-5.0359e-05
-0.000311259
-0.00174895
-0.000549892
-0.000155065
0.000323608
-0.00143738
8.70882e-05
8.80942e-05
9.64317e-05
0.000356361
0.000639318
0.000939535
0.000919551
0.00133103
0.00173818
0.00231743
0.0030581
0.00331618
0.00343544
-5.22466e-05
-0.000336672
-0.00171142
-0.000550099
-0.000186783
0.000310355
-0.00139321
6.20841e-05
0.0001086
6.04208e-05
0.00036913
0.000620104
0.000926118
0.000913835
0.00128246
0.00169709
0.00221847
0.00287671
0.00308565
0.00311859
-5.39263e-05
-0.000362899
-0.00167421
-0.000550021
-0.000218635
0.000296592
-0.00134858
3.45553e-05
0.00013093
2.4022e-05
0.000378918
0.000603827
0.000907373
0.000908728
0.00122879
0.00164564
0.00211771
0.00268748
0.00284927
0.00281739
-5.54442e-05
-0.000389791
-0.00163758
-0.000549485
-0.000250728
0.000282365
-0.00130347
4.34964e-06
0.000154954
-1.24028e-05
0.000385097
0.000591042
0.000882982
0.000903106
0.0011711
0.0015831
0.00201507
0.00249349
0.00260565
0.00252863
-5.68562e-05
-0.000417195
-0.00160183
-0.00054828
-0.000283136
0.000267681
-0.00125776
-2.87854e-05
0.000180766
-4.84822e-05
0.000386815
0.000582347
0.000852588
0.000895612
0.00111077
0.00150851
0.00190944
0.00229902
0.00235607
0.00224725
-5.82391e-05
-0.000444925
-0.00156734
-0.000546195
-0.00031586
0.000252494
-0.00121129
-6.50803e-05
0.000208265
-8.39476e-05
0.000383187
0.000578337
0.000816024
0.000884645
0.00104935
0.00142065
0.00180005
0.00210904
0.00210453
0.00196764
-5.96948e-05
-0.000472734
-0.00153448
-0.000543075
-0.00034888
0.000236683
-0.00116371
-0.000104852
0.000237169
-0.000117745
0.00037304
0.000579548
0.000773599
0.000867721
0.00098868
0.00131989
0.00168419
0.00192659
0.00185658
0.00168648
-6.13463e-05
-0.000500341
-0.00150362
-0.000538801
-0.000382097
0.000219979
-0.00111454
-0.000148506
0.000266984
-0.000148525
0.000354774
0.000586099
0.000726331
0.00084175
0.000930522
0.00120852
0.00155769
0.0017512
0.00161768
0.00140526
-6.33533e-05
-0.000527378
-0.00147514
-0.00053333
-0.000415259
0.000201917
-0.00106316
-0.000196301
0.000296909
-0.00017471
0.000326626
0.000597481
0.000676293
0.000803532
0.000875383
0.00109051
0.00141731
0.0015794
0.00139294
0.00113029
-6.5901e-05
-0.000553471
-0.00144936
-0.000526739
-0.000448028
0.000181901
-0.00100891
-0.000248219
0.000325633
-0.000194451
0.000286978
0.000612375
0.00062648
0.000749994
0.00082206
0.00097149
0.00126292
0.00140724
0.00118467
0.00087011
-6.91963e-05
-0.000578486
-0.00142653
-0.000519217
-0.000479916
0.000159189
-0.000951116
-0.000303889
0.000351299
-0.000205624
0.000235013
0.00062806
0.000580713
0.000679381
0.000767264
0.000857071
0.00109733
0.00122946
0.000990258
0.000632209
-7.34853e-05
-0.000601556
-0.00140687
-0.000511112
-0.000510209
0.000132889
-0.000889462
-0.000362799
0.000371682
-0.000206231
0.000171023
0.000640256
0.000542987
0.000592153
0.00070574
0.000751686
0.000925596
0.00104148
0.000803925
0.000420645
-7.90344e-05
-0.000621835
-0.00139046
-0.000502964
-0.000537986
0.000102133
-0.000824281
-0.000423868
0.000384416
-0.00019503
9.64107e-05
0.000643849
0.00051635
0.000490981
0.000631352
0.000657287
0.000753843
0.000842092
0.000618855
0.000231725
-8.61193e-05
-0.000639434
-0.0013772
-0.00049549
-0.000562233
6.6334e-05
-0.000756283
-0.000498515
0.000386963
-0.000171647
1.39044e-05
0.000633611
0.000501994
0.00038094
0.00053827
0.000571962
0.00058962
0.000634019
0.000429641
5.68315e-05
-9.50375e-05
-0.000654035
-0.00136675
-0.000489707
-0.000582143
2.53628e-05
-0.000686204
-0.000554463
0.000376952
-0.000136659
-7.25354e-05
0.000604838
0.000498744
0.000269074
0.000422645
0.000490536
0.000440702
0.000422211
0.000234107
-0.000111384
-0.000106063
-0.000665298
-0.00135853
-0.000486884
-0.000597375
-2.0501e-05
-0.000615319
-0.000604945
0.000352471
-9.32748e-05
-0.000158271
0.000554241
0.000503281
0.000163347
0.000283898
0.000405986
0.000312819
0.000213128
3.09419e-05
-0.000276302
-0.000119392
-0.000673137
-0.0013518
-0.000488189
-0.000607804
-7.05187e-05
-0.000545419
-0.000647997
0.00031267
-4.41193e-05
-0.000239003
0.000480301
0.000510569
7.10848e-05
0.000125277
0.00030897
0.000207765
1.56506e-05
-0.000182012
-0.000439715
-0.000135181
-0.000677636
-0.00134565
-0.000494535
-0.000613711
-0.00012365
-0.000478191
-0.000681946
0.000257983
7.0071e-06
-0.00031071
0.000383116
0.000513816
-1.75813e-06
-4.65293e-05
0.000189607
0.000120589
-0.000158104
-0.00040366
-0.000608359
-0.000153594
-0.000679
-0.00133901
-0.000506512
-0.000616063
-0.000178722
-0.000416449
-0.000705581
0.000189529
5.60439e-05
-0.000369334
0.000264399
0.00050496
-5.18359e-05
-0.000222084
4.17426e-05
4.12346e-05
-0.000296598
-0.000622645
-0.000793948
-0.000174673
-0.000677683
-0.00133092
-0.000524323
-0.000616255
-0.000234773
-0.000360741
-0.000718247
0.000108617
9.8686e-05
-0.000411267
0.000127793
0.000475806
-8.02383e-05
-0.000389619
-0.000133657
-4.43201e-05
-0.000397611
-0.000819732
-0.0010018
-0.000198345
-0.000674387
-0.00132057
-0.000547558
-0.000615143
-0.000291067
-0.000312254
-0.000719654
1.7319e-05
0.000130252
-0.000434446
-2.10464e-05
0.00041879
-9.21971e-05
-0.000536803
-0.000328957
-0.000149719
-0.000471382
-0.000977186
-0.00121825
-0.000224515
-0.000669938
-0.00130736
-0.000575141
-0.000615538
-0.000347286
-0.000272113
-0.000709714
-8.1801e-05
0.000145998
-0.000438869
-0.000174512
0.000329357
-9.59724e-05
-0.000654589
-0.000533735
-0.00028119
-0.000532798
-0.00108927
-0.00141741
-0.000253019
-0.000665101
-0.00129095
-0.000605893
-0.000617506
-0.000403545
-0.000241397
-0.000688141
-0.000186081
0.000140883
-0.000426748
-0.000323226
0.000207457
-0.000103225
-0.000740612
-0.00073586
-0.000436397
-0.000594744
-0.00116578
-0.00158051
-0.000283646
-0.000660568
-0.00127128
-0.000638709
-0.000621521
-0.00046044
-0.000221632
-0.000654972
-0.000291619
0.000110588
-0.000402676
-0.000456475
5.76224e-05
-0.000127635
-0.000798193
-0.000923329
-0.000611052
-0.00066166
-0.00121637
-0.0017052
-0.000316107
-0.000656941
-0.00124877
-0.000672389
-0.000627434
-0.000518247
-0.000215062
-0.000611963
-0.000392015
5.40553e-05
-0.000374348
-0.000566346
-0.000113268
-0.000179506
-0.000833083
-0.00108531
-0.000801346
-0.000738854
-0.00124248
-0.00179732
-0.000350099
-0.0006547
-0.00122416
-0.000706057
-0.00063454
-0.000576565
-0.000224381
-0.000562549
-0.000480775
-2.71824e-05
-0.000351106
-0.00065013
-0.00029442
-0.000262914
-0.000857554
-0.00121392
-0.000996601
-0.00083796
-0.00124759
-0.00185294
-0.000385343
-0.000654314
-0.00119821
-0.000739019
-0.000642491
-0.000634498
-0.000251684
-0.000511228
-0.000550994
-0.000129648
-0.000343793
-0.000709255
-0.000471562
-0.000375607
-0.000886404
-0.00130958
-0.00118001
-0.000964845
-0.00124909
-0.00186361
-0.00042154
-0.000656064
-0.00117165
-0.000770961
-0.000651132
-0.000689382
-0.000297355
-0.000465781
-0.000599483
-0.000244268
-0.000360419
-0.000749183
-0.00063358
-0.000511567
-0.000928248
-0.00138065
-0.00133976
-0.00111006
-0.00126982
-0.00183606
-0.000458427
-0.000660098
-0.00114513
-0.000802176
-0.000660502
-0.000738669
-0.000360642
-0.000434223
-0.000628222
-0.000359044
-0.000399903
-0.000780572
-0.000777766
-0.000661255
-0.000985122
-0.00143558
-0.00147326
-0.00125648
-0.00131997
-0.00179619
-0.000495754
-0.000666529
-0.00111915
-0.000833136
-0.000671351
-0.000779864
-0.000439269
-0.000423154
-0.000639524
-0.000465839
-0.000459897
-0.000812027
-0.000904695
-0.000817822
-0.00105804
-0.00147857
-0.00158144
-0.0013929
-0.0013911
-0.00177085
-0.00053329
-0.00067544
-0.00109418
-0.000864136
-0.000684745
-0.000812418
-0.00052726
-0.000437147
-0.000641924
-0.000557241
-0.000534543
-0.000848368
-0.0010148
-0.000976412
-0.00114962
-0.0015155
-0.00166351
-0.00151445
-0.00146898
-0.00176999
-0.000570869
-0.000686925
-0.0010706
-0.000895152
-0.000702305
-0.000836602
-0.000617015
-0.000476139
-0.000649123
-0.000632694
-0.000612548
-0.000891484
-0.0011123
-0.00113074
-0.00125937
-0.00155579
-0.00171941
-0.00161668
-0.0015451
-0.00178453
-0.000608344
-0.000701057
-0.00104869
-0.000925715
-0.000726147
-0.000853313
-0.000701901
-0.000538691
-0.000669073
-0.000695647
-0.000686331
-0.000937167
-0.0012006
-0.00127884
-0.00138295
-0.00160795
-0.00175475
-0.0016941
-0.0016166
-0.00180231
-0.000645559
-0.000717927
-0.00102881
-0.000955411
-0.000757435
-0.00086523
-0.000777127
-0.000619604
-0.000706846
-0.000753526
-0.000755567
-0.000979264
-0.0012774
-0.00142079
-0.00151785
-0.00167701
-0.0017818
-0.00174067
-0.00167908
-0.00182172
-0.000682325
-0.000737681
-0.00101145
-0.00098354
-0.000796359
-0.000876725
-0.000840472
-0.0007089
-0.000764709
-0.000815268
-0.000819613
-0.00101655
-0.00133724
-0.00155096
-0.00166362
-0.00176692
-0.00181387
-0.00175877
-0.0017199
-0.00184555
-0.000718426
-0.000760447
-0.000997264
-0.00100888
-0.00084237
-0.000892388
-0.000892192
-0.000797234
-0.000840383
-0.000889291
-0.000883662
-0.00104744
-0.00137883
-0.00166138
-0.00181337
-0.00188164
-0.00186476
-0.00176494
-0.00172494
-0.00186532
-0.000753682
-0.000786196
-0.000987092
-0.00103047
-0.000894111
-0.000916403
-0.00093393
-0.000878542
-0.000927073
-0.000977694
-0.000957668
-0.00107305
-0.0013993
-0.00174627
-0.00195767
-0.00201854
-0.00194632
-0.00177957
-0.00170009
-0.00185784
-0.00078798
-0.000814734
-0.000982023
-0.00104802
-0.000949295
-0.000951204
-0.00096969
-0.000949122
-0.00101644
-0.00107845
-0.00104798
-0.00110432
-0.00139917
-0.00179846
-0.00208629
-0.00216777
-0.0020619
-0.00182773
-0.00166781
-0.00180667
-0.000821278
-0.000845694
-0.000983167
-0.00106219
-0.0010046
-0.000997281
-0.00100602
-0.00100814
-0.00110059
-0.00118738
-0.00115566
-0.00115352
-0.00138681
-0.00181089
-0.00218674
-0.00232103
-0.00220401
-0.0019212
-0.0016624
-0.00172495
-0.000853652
-0.000878562
-0.000991341
-0.00107417
-0.00105638
-0.00105306
-0.00104938
-0.00105745
-0.00117307
-0.0012963
-0.00127838
-0.00122657
-0.00137877
-0.001789
-0.00224252
-0.00246511
-0.00236637
-0.00205473
-0.00171012
-0.0016464
-0.000885363
-0.000912656
-0.00100671
-0.00108577
-0.00110219
-0.0011159
-0.00110345
-0.00110203
-0.00123102
-0.00139597
-0.00141151
-0.00132666
-0.00138934
-0.00174541
-0.00224621
-0.00257808
-0.0025402
-0.00221855
-0.00181413
-0.00161359
-0.000916794
-0.000947244
-0.00102875
-0.00109946
-0.00114136
-0.0011811
-0.00116905
-0.00114963
-0.00127586
-0.00147898
-0.00154474
-0.00145164
-0.00142917
-0.00169901
-0.00220532
-0.002639
-0.00270602
-0.00240676
-0.00196455
-0.00164952
-0.000948404
-0.000981698
-0.00105656
-0.00111781
-0.00117485
-0.00124306
-0.00124408
-0.00120686
-0.0013113
-0.00154162
-0.00166593
-0.00159342
-0.00150591
-0.00166948
-0.00213254
-0.00263871
-0.00283719
-0.00260713
-0.00215085
-0.00175304
-0.000980659
-0.00101571
-0.00108873
-0.00114246
-0.00120451
-0.00129777
-0.00132457
-0.0012775
-0.00134547
-0.00158421
-0.00176716
-0.00173915
-0.0016164
-0.00167392
-0.00205079
-0.00258289
-0.00290975
-0.0027972
-0.00236497
-0.00191191
-0.00101394
-0.00104931
-0.00112353
-0.0011736
-0.00123326
-0.00134416
-0.00140402
-0.00136086
-0.00138823
-0.00161007
-0.00184277
-0.00187532
-0.00175011
-0.00172078
-0.00198682
-0.00248711
-0.00291123
-0.00294757
-0.00259041
-0.00211541
-0.00104848
-0.00108275
-0.00115922
-0.00121042
-0.00126441
-0.00138344
-0.00147607
-0.00145238
-0.0014463
-0.00162794
-0.0018905
-0.00199213
-0.00189396
-0.00180547
-0.00195966
-0.00238112
-0.00284945
-0.00303223
-0.00280068
-0.00235164
-0.00108431
-0.00111646
-0.0011945
-0.00125151
-0.00130024
-0.00141776
-0.00153742
-0.00154571
-0.00152073
-0.00165098
-0.00191457
-0.00208062
-0.00203391
-0.00191813
-0.00197592
-0.00229519
-0.00274581
-0.0030412
-0.00296443
-0.00259638
-0.00112123
-0.00115087
-0.00122884
-0.00129494
-0.00134149
-0.00145032
-0.00158779
-0.00163321
-0.00160703
-0.00168835
-0.0019245
-0.00213617
-0.00215691
-0.0020473
-0.00203117
-0.00224696
-0.00263631
-0.00298792
-0.0030585
-0.00281545
-0.00115885
-0.00118633
-0.00126244
-0.00133846
-0.00138729
-0.00148462
-0.00162916
-0.0017093
-0.0016989
-0.00174272
-0.00193497
-0.00216426
-0.00225109
-0.00217803
-0.00211777
-0.00224124
-0.00254918
-0.00289934
-0.00308025
-0.00297784
-0.00119669
-0.00122291
-0.00129579
-0.00138029
-0.00143583
-0.00152279
-0.0016645
-0.00177197
-0.0017886
-0.00181116
-0.00195607
-0.00217538
-0.00231215
-0.00229428
-0.00222489
-0.00227476
-0.00249862
-0.00281034
-0.00304751
-0.00306883
-0.00123427
-0.0012603
-0.00132938
-0.00141966
-0.00148495
-0.00156502
-0.00169754
-0.00182235
-0.00186918
-0.00188761
-0.00199141
-0.00218332
-0.00234667
-0.00238444
-0.00233606
-0.00234002
-0.00248773
-0.00274244
-0.00298866
-0.00309689
-0.00127117
-0.001298
-0.00136349
-0.00145651
-0.00153244
-0.00161009
-0.00173129
-0.00186328
-0.00193711
-0.00196526
-0.00203988
-0.00219743
-0.00236464
-0.00244604
-0.00243537
-0.00242436
-0.00251195
-0.0027056
-0.00293038
-0.00308234
-0.00130702
-0.00133528
-0.00139801
-0.00149122
-0.00157666
-0.00165603
-0.00176701
-0.00189806
-0.00199208
-0.0020374
-0.00209688
-0.00222162
-0.00237718
-0.00248521
-0.00251353
-0.0025114
-0.00256187
-0.00270053
-0.00288843
-0.00304997
-0.00134144
-0.00137138
-0.00143242
-0.00152416
-0.00161681
-0.00170072
-0.00180434
-0.0019299
-0.00203621
-0.00209961
-0.00215645
-0.0022559
-0.00239215
-0.00251023
-0.00256947
-0.00258805
-0.00262394
-0.00272071
-0.0028689
-0.00301906
-0.001374
-0.00140551
-0.00146593
-0.00155544
-0.0016527
-0.0017424
-0.00184201
-0.0019607
-0.00207233
-0.00215068
-0.00221254
-0.00229657
-0.00241292
-0.00252929
-0.00260834
-0.00264857
-0.00268505
-0.00275628
-0.00287017
-0.00299977
-0.00140417
-0.00143698
-0.00149753
-0.00158487
-0.00168445
-0.00177964
-0.00187826
-0.00199086
-0.00210314
-0.00219209
-0.00226138
-0.00233837
-0.00243888
-0.00254773
-0.00263636
-0.00269389
-0.00273779
-0.00279688
-0.00288578
-0.00299398
-0.0014313
-0.00146508
-0.00152616
-0.00161185
-0.00171224
-0.00181174
-0.0019112
-0.00201947
-0.00213018
-0.00222563
-0.00230226
-0.00237734
-0.00246686
-0.00256671
-0.002658
-0.00272759
-0.00278096
-0.00283654
-0.00290933
-0.00299921
-0.00145469
-0.00148902
-0.00155063
-0.00163524
-0.00173566
-0.00183845
-0.00193968
-0.00204499
-0.00215314
-0.00225226
-0.00233564
-0.00241186
-0.0024941
-0.0025851
-0.00267475
-0.00275147
-0.00281408
-0.00287229
-0.00293759
-0.00301403
-0.00147364
-0.00150822
-0.00157016
-0.00165378
-0.00175334
-0.001858
-0.00196103
-0.00206453
-0.00216974
-0.00227007
-0.00235856
-0.00243769
-0.00251673
-0.00260117
-0.0026872
-0.0027666
-0.00283512
-0.00289619
-0.0029575
-0.00302475
-0.00148777
-0.00152333
-0.00158673
-0.00167132
-0.00177109
-0.00187717
-0.00198223
-0.00208577
-0.00218914
-0.00228892
-0.00237966
-0.00246142
-0.00254025
-0.0026215
-0.0027045
-0.00278397
-0.00285566
-0.00292014
-0.00298201
-0.00304612
0.0144502
0.00799351
-0.000402324
-0.00659293
-0.00850754
-0.00788495
-0.00688521
-0.00628082
-0.00609488
-0.00609227
-0.00609423
-0.00607539
-0.0060679
-0.00612359
-0.00625913
-0.00637828
-0.00641782
-0.00642394
-0.00642861
-0.00644005
-0.0064497
-0.00644351
-0.00647257
-0.0065473
-0.00658927
-0.00661277
-0.00668908
-0.00677823
-0.00683128
-0.00688308
-0.00694931
-0.00700283
-0.00704277
-0.00710825
-0.00720748
-0.0072757
-0.00730247
-0.00736873
-0.00746168
-0.00750205
-0.0075253
-0.00758691
-0.00764464
-0.00767335
-0.00770612
-0.00774988
-0.00778388
-0.00780736
-0.00783046
-0.00785566
-0.00787963
-0.00790528
-0.00793394
-0.00796128
-0.00798519
-0.00801241
-0.00804382
-0.00807447
-0.00810426
-0.00813679
-0.00817266
-0.0082083
-0.00824562
-0.00828383
-0.00832534
-0.00836669
-0.00841089
-0.00845533
-0.00850243
-0.00855049
-0.00860012
-0.00865225
-0.00870441
-0.00876064
-0.00881553
-0.00887527
-0.00893373
-0.0089961
-0.00905928
-0.00912354
-0.00919188
-0.00925819
-0.00933045
-0.0094005
-0.00947404
-0.00955014
-0.00962308
-0.00970535
-0.00977962
-0.00986328
-0.0099455
-0.0100233
-0.0101169
-0.0101921
-0.0102828
-0.0103744
-0.0104497
-0.0105457
-0.010659
-0.010761
0.0136182
0.00783182
-0.000316486
-0.00644702
-0.00841958
-0.00784345
-0.00685972
-0.00626268
-0.00608133
-0.00608167
-0.00608555
-0.00606798
-0.00606134
-0.00611771
-0.00625409
-0.00637407
-0.00641416
-0.00642068
-0.0064257
-0.00643742
-0.00644734
-0.0064413
-0.00647046
-0.00654542
-0.00658758
-0.00661111
-0.00668752
-0.00677684
-0.00682997
-0.00688183
-0.00694817
-0.00700179
-0.00704178
-0.00710729
-0.00720663
-0.00727498
-0.00730177
-0.00736805
-0.00746113
-0.00750158
-0.00752484
-0.0075865
-0.00764431
-0.00767305
-0.00770584
-0.00774964
-0.00778368
-0.00780719
-0.00783031
-0.00785554
-0.00787953
-0.00790519
-0.00793386
-0.00796122
-0.00798514
-0.00801236
-0.00804378
-0.00807444
-0.00810424
-0.00813677
-0.00817265
-0.00820829
-0.00824561
-0.00828383
-0.00832533
-0.00836669
-0.00841088
-0.00845533
-0.00850243
-0.00855049
-0.00860012
-0.00865225
-0.00870441
-0.00876064
-0.00881553
-0.00887527
-0.00893373
-0.0089961
-0.00905928
-0.00912354
-0.00919188
-0.00925819
-0.00933045
-0.0094005
-0.00947404
-0.00955014
-0.00962308
-0.00970535
-0.00977962
-0.00986328
-0.0099455
-0.0100233
-0.0101169
-0.0101921
-0.0102828
-0.0103744
-0.0104497
-0.0105457
-0.010659
-0.010761
0.0128543
0.00767592
-0.000135111
-0.00617141
-0.00826508
-0.00778637
-0.0068328
-0.00624337
-0.00606581
-0.00606889
-0.00607501
-0.00605947
-0.00605434
-0.00611162
-0.00624874
-0.00636947
-0.0064102
-0.00641731
-0.00642278
-0.00643483
-0.00644505
-0.00643919
-0.00646849
-0.0065437
-0.006586
-0.00660956
-0.00668612
-0.00677561
-0.00682879
-0.00688069
-0.00694713
-0.00700083
-0.00704085
-0.00710641
-0.00720586
-0.00727431
-0.00730109
-0.00736741
-0.00746062
-0.00750112
-0.00752438
-0.00758611
-0.007644
-0.00767276
-0.00770558
-0.00774943
-0.0077835
-0.00780703
-0.00783017
-0.00785541
-0.00787942
-0.0079051
-0.00793378
-0.00796116
-0.00798508
-0.00801231
-0.00804374
-0.00807441
-0.00810421
-0.00813675
-0.00817263
-0.00820828
-0.0082456
-0.00828382
-0.00832533
-0.00836668
-0.00841088
-0.00845532
-0.00850243
-0.00855049
-0.00860012
-0.00865225
-0.00870441
-0.00876064
-0.00881553
-0.00887527
-0.00893373
-0.0089961
-0.00905928
-0.00912354
-0.00919188
-0.00925819
-0.00933045
-0.0094005
-0.00947404
-0.00955014
-0.00962307
-0.00970535
-0.00977962
-0.00986328
-0.0099455
-0.0100233
-0.0101169
-0.0101921
-0.0102828
-0.0103744
-0.0104497
-0.0105457
-0.010659
-0.010761
0.0121339
0.00751685
9.60251e-05
-0.00582139
-0.00805161
-0.00770441
-0.00679364
-0.00621522
-0.00604341
-0.00605062
-0.00606017
-0.00604801
-0.00604556
-0.00610406
-0.00624145
-0.00636254
-0.00640422
-0.00641251
-0.00641885
-0.00643142
-0.0064421
-0.00643658
-0.00646611
-0.00654156
-0.00658404
-0.00660773
-0.00668454
-0.00677423
-0.00682742
-0.00687935
-0.0069459
-0.00699972
-0.00703979
-0.00710537
-0.00720492
-0.00727348
-0.00730027
-0.00736664
-0.00745997
-0.00750051
-0.00752377
-0.0075856
-0.00764358
-0.00767236
-0.00770523
-0.00774914
-0.00778325
-0.0078068
-0.00782997
-0.00785525
-0.00787927
-0.00790497
-0.00793367
-0.00796107
-0.007985
-0.00801225
-0.00804368
-0.00807436
-0.00810417
-0.00813671
-0.0081726
-0.00820826
-0.00824558
-0.0082838
-0.00832532
-0.00836668
-0.00841087
-0.00845532
-0.00850242
-0.00855049
-0.00860012
-0.00865225
-0.00870441
-0.00876064
-0.00881553
-0.00887527
-0.00893373
-0.0089961
-0.00905928
-0.00912354
-0.00919188
-0.00925819
-0.00933045
-0.0094005
-0.00947404
-0.00955014
-0.00962307
-0.00970535
-0.00977962
-0.00986328
-0.0099455
-0.0100233
-0.0101169
-0.0101921
-0.0102828
-0.0103744
-0.0104496
-0.0105457
-0.010659
-0.0107611
0.0114287
0.00733691
0.000334034
-0.00545234
-0.00781646
-0.0076111
-0.00674843
-0.0061808
-0.00601447
-0.00602632
-0.00604013
-0.00603253
-0.00603414
-0.00609445
-0.00623146
-0.00635225
-0.00639508
-0.0064053
-0.00641309
-0.00642654
-0.006438
-0.00643316
-0.00646299
-0.00653855
-0.00658123
-0.00660528
-0.00668247
-0.00677241
-0.00682567
-0.00687761
-0.00694425
-0.00699825
-0.00703845
-0.00710402
-0.00720359
-0.00727228
-0.00729915
-0.00736556
-0.00745896
-0.00749955
-0.00752289
-0.00758484
-0.00764291
-0.00767174
-0.00770469
-0.00774868
-0.00778284
-0.00780643
-0.00782966
-0.00785498
-0.00787904
-0.00790476
-0.0079335
-0.00796092
-0.00798488
-0.00801214
-0.00804359
-0.00807429
-0.00810411
-0.00813666
-0.00817256
-0.00820822
-0.00824555
-0.00828378
-0.0083253
-0.00836666
-0.00841086
-0.00845531
-0.00850242
-0.00855049
-0.00860012
-0.00865225
-0.00870441
-0.00876064
-0.00881553
-0.00887527
-0.00893373
-0.0089961
-0.00905929
-0.00912353
-0.00919188
-0.00925819
-0.00933045
-0.0094005
-0.00947404
-0.00955015
-0.00962307
-0.00970535
-0.00977962
-0.00986328
-0.0099455
-0.0100233
-0.0101169
-0.0101921
-0.0102828
-0.0103744
-0.0104496
-0.0105457
-0.010659
-0.0107611
0.0107378
0.00712955
0.000560815
-0.00508243
-0.007572
-0.00751338
-0.00670278
-0.0061445
-0.00598195
-0.0059981
-0.00601643
-0.00601406
-0.00602061
-0.00608303
-0.00621898
-0.00633866
-0.00638267
-0.0063954
-0.00640519
-0.00641984
-0.00643251
-0.00642885
-0.00645908
-0.00653451
-0.00657738
-0.00660197
-0.00667963
-0.0067699
-0.00682335
-0.00687528
-0.00694196
-0.00699627
-0.00703675
-0.00710223
-0.00720168
-0.00727054
-0.00729763
-0.00736405
-0.00745739
-0.00749805
-0.00752157
-0.00758365
-0.0076418
-0.00767075
-0.00770384
-0.00774793
-0.00778216
-0.00780584
-0.00782914
-0.00785453
-0.00787865
-0.00790442
-0.0079332
-0.00796066
-0.00798466
-0.00801195
-0.00804343
-0.00807415
-0.00810399
-0.00813656
-0.00817248
-0.00820815
-0.0082455
-0.00828374
-0.00832526
-0.00836663
-0.00841084
-0.0084553
-0.0085024
-0.00855048
-0.00860011
-0.00865224
-0.0087044
-0.00876064
-0.00881553
-0.00887527
-0.00893373
-0.0089961
-0.00905929
-0.00912353
-0.00919188
-0.00925819
-0.00933045
-0.0094005
-0.00947404
-0.00955015
-0.00962307
-0.00970535
-0.00977962
-0.00986328
-0.0099455
-0.0100233
-0.010117
-0.0101921
-0.0102828
-0.0103744
-0.0104496
-0.0105457
-0.010659
-0.0107612
0.0100646
0.00689231
0.000769959
-0.00471441
-0.00731818
-0.00741067
-0.00665734
-0.00610772
-0.00594715
-0.00596721
-0.00599041
-0.00599376
-0.00600576
-0.00607039
-0.00620478
-0.00632277
-0.00636785
-0.00638335
-0.0063954
-0.00641139
-0.00642562
-0.00642369
-0.00645451
-0.00652958
-0.00657257
-0.00659778
-0.00667585
-0.00676648
-0.0068203
-0.00687223
-0.00693889
-0.00699367
-0.00703464
-0.00709993
-0.00719902
-0.00726814
-0.00729567
-0.00736202
-0.00745511
-0.00749589
-0.00751969
-0.0075819
-0.00764011
-0.00766926
-0.00770256
-0.00774677
-0.0077811
-0.0078049
-0.00782834
-0.00785383
-0.00787804
-0.00790388
-0.00793271
-0.00796025
-0.00798432
-0.00801166
-0.00804317
-0.00807392
-0.0081038
-0.0081364
-0.00817234
-0.00820803
-0.0082454
-0.00828366
-0.0083252
-0.00836658
-0.0084108
-0.00845526
-0.00850238
-0.00855046
-0.0086001
-0.00865223
-0.00870439
-0.00876063
-0.00881553
-0.00887527
-0.00893373
-0.0089961
-0.00905929
-0.00912353
-0.00919188
-0.00925819
-0.00933045
-0.0094005
-0.00947404
-0.00955015
-0.00962307
-0.00970535
-0.00977962
-0.00986328
-0.00994551
-0.0100233
-0.010117
-0.0101921
-0.0102828
-0.0103744
-0.0104496
-0.0105456
-0.010659
-0.0107613
0.0094122
0.00662618
0.00095945
-0.00434704
-0.00705206
-0.00730032
-0.00661143
-0.00607095
-0.00591062
-0.00593407
-0.00596252
-0.00597206
-0.00598981
-0.00605679
-0.00618945
-0.00630548
-0.00635154
-0.00636991
-0.00638428
-0.00640161
-0.00641755
-0.00641778
-0.00644943
-0.00652405
-0.00656711
-0.00659292
-0.00667125
-0.00676216
-0.00681643
-0.00686838
-0.00693498
-0.00699042
-0.00703208
-0.00709708
-0.00719556
-0.00726501
-0.00729323
-0.00735944
-0.00745207
-0.00749301
-0.00751723
-0.00757951
-0.00763776
-0.00766718
-0.00770076
-0.00774511
-0.00777957
-0.00780355
-0.00782717
-0.00785281
-0.00787713
-0.00790307
-0.00793199
-0.00795962
-0.00798379
-0.00801121
-0.00804276
-0.00807356
-0.0081035
-0.00813615
-0.00817213
-0.00820785
-0.00824524
-0.00828352
-0.00832509
-0.00836649
-0.00841072
-0.0084552
-0.00850233
-0.00855042
-0.00860007
-0.00865221
-0.00870438
-0.00876062
-0.00881552
-0.00887527
-0.00893373
-0.00899609
-0.00905929
-0.00912353
-0.00919188
-0.00925819
-0.00933045
-0.0094005
-0.00947404
-0.00955015
-0.00962307
-0.00970535
-0.00977962
-0.00986328
-0.00994551
-0.0100233
-0.010117
-0.0101921
-0.0102828
-0.0103744
-0.0104496
-0.0105456
-0.010659
-0.0107615
0.00878429
0.00633507
0.00112744
-0.00398076
-0.00677216
-0.00718037
-0.00656456
-0.00603482
-0.00587287
-0.00589881
-0.00593278
-0.00594896
-0.0059728
-0.00604233
-0.0061733
-0.00628728
-0.00633427
-0.00635554
-0.00637226
-0.0063909
-0.0064086
-0.00641122
-0.00644393
-0.00651814
-0.00656127
-0.00658767
-0.00666608
-0.00675713
-0.00681182
-0.00686376
-0.0069303
-0.00698655
-0.00702912
-0.00709374
-0.00719135
-0.00726117