/*--------------------------------*- C++ -*----------------------------------*\
| =========                 |                                                 |
| \\      /  F ield         | OpenFOAM: The Open Source CFD Toolbox           |
|  \\    /   O peration     | Version:  2106                                  |
|   \\  /    A nd           | Website:  www.openfoam.com                      |
|    \\/     M anipulation  |                                                 |
\*---------------------------------------------------------------------------*/
FoamFile
{
    version     2.0;
    format      ascii;
    arch        "LSB;label=32;scalar=64";
    class       surfaceScalarField;
    location    "0.335";
    object      phi;
}
// * * * * * * * * * * * * * * * * * * * * * * * * * * * * * * * * * * * * * //

dimensions      [0 3 -1 0 0 0 0];

oriented        oriented;

internalField   nonuniform List<scalar> 
19000
(
1.19606e-06
4.90047e-07
1.11867e-06
-2.25211e-07
1.15861e-06
-4.30982e-07
1.18167e-06
5.6959e-07
1.13e-06
-3.23079e-07
1.14699e-06
3.22453e-07
1.18248e-06
-4.54438e-07
1.17779e-06
4.42805e-07
1.1806e-06
-2.16563e-07
1.17054e-06
9.37493e-08
1.1717e-06
-1.17926e-07
1.16239e-06
2.77966e-07
1.16987e-06
8.93133e-08
1.16697e-06
1.04666e-07
1.17923e-06
-4.6112e-08
1.17789e-06
-7.4867e-08
1.18675e-06
-1.29374e-07
1.18218e-06
-5.6591e-08
1.1808e-06
-4.13227e-08
3.2107e-08
1.1516e-06
1.24928e-06
4.65031e-07
1.17345e-06
-1.49383e-07
1.21444e-06
-4.71971e-07
1.24364e-06
5.40387e-07
1.19195e-06
-2.71393e-07
1.20774e-06
3.06663e-07
1.243e-06
-4.89696e-07
1.24353e-06
4.42278e-07
1.2443e-06
-2.17337e-07
1.23579e-06
1.02266e-07
1.2326e-06
-1.14743e-07
1.23042e-06
2.80144e-07
1.22815e-06
9.15911e-08
1.23555e-06
9.72643e-08
1.23436e-06
-4.492e-08
1.24633e-06
-8.68392e-08
1.23749e-06
-1.20534e-07
1.2531e-06
-7.21998e-08
1.227e-06
-1.52275e-08
2.38233e-08
1.23529e-06
1.30351e-06
4.443e-07
1.23643e-06
-8.23026e-08
1.27083e-06
-5.06369e-07
1.30863e-06
5.02588e-07
1.25743e-06
-2.20188e-07
1.27186e-06
2.92232e-07
1.30149e-06
-5.1933e-07
1.3131e-06
4.30674e-07
1.30628e-06
-2.10516e-07
1.30438e-06
1.04157e-07
1.29282e-06
-1.03183e-07
1.29905e-06
2.73922e-07
1.28802e-06
1.02614e-07
1.29927e-06
8.60151e-08
1.29172e-06
-3.73698e-08
1.3038e-06
-9.89151e-08
1.29443e-06
-1.11163e-07
1.30454e-06
-8.23152e-08
1.29068e-06
-1.36293e-09
3.20855e-08
1.28242e-06
1.35988e-06
4.28522e-07
1.30731e-06
-2.97282e-08
1.32956e-06
-5.28627e-07
1.3723e-06
4.59854e-07
1.32492e-06
-1.72812e-07
1.33545e-06
2.81708e-07
1.35747e-06
-5.41357e-07
1.37731e-06
4.10832e-07
1.36521e-06
-1.98415e-07
1.3662e-06
1.03168e-07
1.35138e-06
-8.83659e-08
1.35902e-06
2.6629e-07
1.34812e-06
1.13515e-07
1.3558e-06
7.83299e-08
1.34994e-06
-3.15095e-08
1.35653e-06
-1.05505e-07
1.35154e-06
-1.06176e-07
1.35609e-06
-8.68652e-08
1.34964e-06
5.08882e-09
4.25008e-08
1.33923e-06
1.41928e-06
4.176e-07
1.38353e-06
6.02004e-09
1.39155e-06
-5.36645e-07
1.43342e-06
4.17984e-07
1.39409e-06
-1.33485e-07
1.39922e-06
2.76582e-07
1.41325e-06
-5.55392e-07
1.43604e-06
3.88042e-07
1.42345e-06
-1.85824e-07
1.42355e-06
1.03068e-07
1.40951e-06
-7.43296e-08
1.41553e-06
2.60271e-07
1.40828e-06
1.20769e-07
1.41325e-06
7.33538e-08
1.40944e-06
-2.76941e-08
1.41313e-06
-1.09192e-07
1.4093e-06
-1.02344e-07
1.41171e-06
-8.92842e-08
1.40722e-06
9.57998e-09
5.19183e-08
1.39781e-06
1.48267e-06
4.10603e-07
1.46219e-06
2.6508e-08
1.45793e-06
-5.32392e-07
1.49376e-06
3.82156e-07
1.4654e-06
-1.05122e-07
1.46597e-06
2.76012e-07
1.47246e-06
-5.61882e-07
1.49412e-06
3.66382e-07
1.48418e-06
-1.75888e-07
1.48279e-06
1.04458e-07
1.47019e-06
-6.17263e-08
1.47516e-06
2.55296e-07
1.47114e-06
1.24789e-07
1.47593e-06
6.85645e-08
1.473e-06
-2.47612e-08
1.47556e-06
-1.11757e-07
1.47132e-06
-9.80952e-08
1.47176e-06
-8.97306e-08
1.46816e-06
1.31821e-08
6.13145e-08
1.45876e-06
1.55076e-06
4.06057e-07
1.5416e-06
3.56682e-08
1.52947e-06
-5.20262e-07
1.55672e-06
3.54904e-07
1.53934e-06
-8.77395e-08
1.53783e-06
2.7752e-07
1.53757e-06
-5.6162e-07
1.55626e-06
3.47698e-07
1.54925e-06
-1.68883e-07
1.54774e-06
1.05969e-07
1.53607e-06
-5.00571e-08
1.54124e-06
2.50129e-07
1.53926e-06
1.26766e-07
1.54476e-06
6.30604e-08
1.54198e-06
-2.19776e-08
1.54362e-06
-1.13391e-07
1.53877e-06
-9.32531e-08
1.53688e-06
-8.7841e-08
1.53392e-06
1.61505e-08
7.10688e-08
1.52416e-06
1.62366e-06
4.02527e-07
1.62155e-06
3.77816e-08
1.60593e-06
-5.04651e-07
1.62498e-06
3.35861e-07
1.61614e-06
-7.8905e-08
1.615e-06
2.78667e-07
1.60913e-06
-5.55752e-07
1.62463e-06
3.32195e-07
1.61919e-06
-1.63443e-07
1.61892e-06
1.0624e-07
1.60806e-06
-3.91969e-08
1.61423e-06
2.43954e-07
1.61327e-06
1.27733e-07
1.61921e-06
5.71138e-08
1.61609e-06
-1.88489e-08
1.61651e-06
-1.13818e-07
1.61126e-06
-8.79978e-08
1.60705e-06
-8.36347e-08
1.60463e-06
1.85735e-08
8.09904e-08
1.59471e-06
1.70104e-06
3.99064e-07
1.70264e-06
3.61787e-08
1.6864e-06
-4.88416e-07
1.69939e-06
3.22874e-07
1.69587e-06
-7.53882e-08
1.69639e-06
2.78151e-07
1.68633e-06
-5.4569e-07
1.69932e-06
3.19205e-07
1.69393e-06
-1.58056e-07
1.69545e-06
1.04722e-07
1.6855e-06
-2.92526e-08
1.69306e-06
2.36397e-07
1.69239e-06
1.28408e-07
1.69828e-06
5.1222e-08
1.69459e-06
-1.5157e-08
1.69357e-06
-1.12803e-07
1.68818e-06
-8.26034e-08
1.68188e-06
-7.73414e-08
1.67998e-06
2.04814e-08
9.06648e-08
1.6703e-06
1.78252e-06
3.95271e-07
1.78578e-06
3.29144e-08
1.77008e-06
-4.72716e-07
1.7795e-06
3.13453e-07
1.77863e-06
-7.45163e-08
1.78099e-06
2.7579e-07
1.76809e-06
-5.3279e-07
1.77955e-06
3.07748e-07
1.77328e-06
-1.51791e-07
1.77647e-06
1.01536e-07
1.76735e-06
-2.01341e-08
1.77631e-06
2.27442e-07
1.77558e-06
1.29135e-07
1.78112e-06
4.56812e-08
1.77698e-06
-1.10206e-08
1.77446e-06
-1.10275e-07
1.76921e-06
-7.73547e-08
1.76115e-06
-6.92793e-08
1.75959e-06
2.20412e-08
9.96158e-08
1.75063e-06
1.86793e-06
3.91089e-07
1.87181e-06
2.90376e-08
1.85674e-06
-4.57652e-07
1.86451e-06
3.05687e-07
1.8646e-06
-7.46082e-08
1.86845e-06
2.71946e-07
1.85374e-06
-5.18087e-07
1.86458e-06
2.96912e-07
1.85711e-06
-1.44323e-07
1.86159e-06
9.70536e-08
1.85298e-06
-1.15233e-08
1.8631e-06
2.17323e-07
1.86227e-06
1.29969e-07
1.86737e-06
4.05818e-08
1.86312e-06
-6.77134e-09
1.85913e-06
-1.06292e-07
1.85426e-06
-7.24821e-08
1.84481e-06
-5.9823e-08
1.84327e-06
2.35791e-08
1.07401e-07
1.83548e-06
1.95735e-06
3.86578e-07
1.96138e-06
2.50057e-08
1.94669e-06
-4.42957e-07
1.95391e-06
2.98464e-07
1.9541e-06
-7.47953e-08
1.959e-06
2.67043e-07
1.94314e-06
-5.02231e-07
1.95401e-06
2.86046e-07
1.94537e-06
-1.35683e-07
1.95079e-06
9.163e-08
1.94234e-06
-3.07208e-09
1.95329e-06
2.06377e-07
1.95244e-06
1.30817e-07
1.95707e-06
3.59537e-08
1.95307e-06
-2.77586e-09
1.94774e-06
-1.00954e-07
1.94336e-06
-6.8104e-08
1.93295e-06
-4.94199e-08
1.93105e-06
2.54866e-08
1.13673e-07
1.92477e-06
2.05097e-06
3.81793e-07
2.05498e-06
2.09995e-08
2.0404e-06
-4.28377e-07
2.0476e-06
2.91267e-07
2.0475e-06
-7.47001e-08
2.05315e-06
2.61397e-07
2.03649e-06
-4.85574e-07
2.04776e-06
2.74779e-07
2.0381e-06
-1.26029e-07
2.04423e-06
8.55051e-08
2.03571e-06
5.44852e-09
2.04715e-06
1.9493e-07
2.04642e-06
1.31547e-07
2.05051e-06
3.18724e-08
2.04705e-06
6.75787e-10
2.04048e-06
-9.43777e-08
2.03657e-06
-6.41918e-08
2.02571e-06
-3.85695e-08
2.02312e-06
2.80791e-08
1.18238e-07
2.01856e-06
2.14903e-06
3.76759e-07
2.15294e-06
1.70953e-08
2.13834e-06
-4.13775e-07
2.14569e-06
2.83909e-07
2.1452e-06
-7.42014e-08
2.15137e-06
2.5522e-07
2.13409e-06
-4.68289e-07
2.14592e-06
2.62947e-07
2.13543e-06
-1.15538e-07
2.14211e-06
7.88218e-08
2.13345e-06
1.41153e-08
2.14511e-06
1.83269e-07
2.14464e-06
1.32019e-07
2.14804e-06
2.84722e-08
2.1453e-06
3.4106e-09
2.13763e-06
-8.67078e-08
2.13401e-06
-6.05718e-08
2.12322e-06
-2.77765e-08
2.11976e-06
3.15346e-08
1.21078e-07
2.11692e-06
2.25177e-06
3.71478e-07
2.25553e-06
1.33362e-08
2.24086e-06
-3.99106e-07
2.24842e-06
2.76345e-07
2.24753e-06
-7.33077e-08
2.25408e-06
2.48669e-07
2.23625e-06
-4.50461e-07
2.24868e-06
2.50519e-07
2.23752e-06
-1.04375e-07
2.24467e-06
7.16739e-08
2.23589e-06
2.2887e-08
2.24752e-06
1.71644e-07
2.24744e-06
1.32099e-07
2.25001e-06
2.59007e-08
2.24804e-06
5.38013e-09
2.23949e-06
-7.81544e-08
2.23588e-06
-5.69655e-08
2.2256e-06
-1.74928e-08
2.22126e-06
3.58773e-08
1.22363e-07
2.21997e-06
2.35942e-06
3.65936e-07
2.363e-06
9.75568e-09
2.34827e-06
-3.84374e-07
2.35601e-06
2.68598e-07
2.3548e-06
-7.20928e-08
2.3616e-06
2.41872e-07
2.34328e-06
-4.3215e-07
2.35626e-06
2.37541e-07
2.34457e-06
-9.26864e-08
2.3521e-06
6.41489e-08
2.34333e-06
3.16506e-08
2.35469e-06
1.60284e-07
2.35514e-06
1.31656e-07
2.35677e-06
2.42704e-08
2.3555e-06
6.64532e-09
2.34633e-06
-6.89866e-08
2.34243e-06
-5.30593e-08
2.333e-06
-8.06609e-09
2.32788e-06
4.10008e-08
1.22412e-07
2.32783e-06
2.47221e-06
3.60118e-07
2.47559e-06
6.38409e-09
2.46082e-06
-3.69611e-07
2.46869e-06
2.60733e-07
2.46726e-06
-7.06607e-08
2.47419e-06
2.34937e-07
2.45547e-06
-4.13426e-07
2.4689e-06
2.24105e-07
2.45682e-06
-8.06003e-08
2.46461e-06
5.63517e-08
2.456e-06
4.02591e-08
2.4669e-06
1.49388e-07
2.46797e-06
1.30585e-07
2.46862e-06
2.36166e-08
2.46793e-06
7.33873e-09
2.45843e-06
-5.94851e-08
2.45395e-06
-4.85799e-08
2.44559e-06
2.9775e-10
2.43989e-06
4.66978e-08
1.21641e-07
2.44066e-06
2.59041e-06
3.54006e-07
2.59354e-06
3.25394e-09
2.5788e-06
-3.54872e-07
2.58669e-06
2.52842e-07
2.58515e-06
-6.91251e-08
2.59212e-06
2.27966e-07
2.57308e-06
-3.94382e-07
2.58686e-06
2.10325e-07
2.57449e-06
-6.82295e-08
2.58243e-06
4.84105e-08
2.57413e-06
4.85569e-08
2.5844e-06
1.39124e-07
2.58616e-06
1.28821e-07
2.58589e-06
2.38835e-08
2.58558e-06
7.6484e-09
2.57602e-06
-4.99203e-08
2.5708e-06
-4.33624e-08
2.56352e-06
7.58202e-09
2.55754e-06
5.26705e-08
1.2049e-07
2.5587e-06
2.71425e-06
3.47582e-07
2.7171e-06
4.04335e-10
2.70246e-06
-3.40233e-07
2.71026e-06
2.45042e-07
2.70874e-06
-6.75997e-08
2.71565e-06
2.21055e-07
2.6964e-06
-3.75127e-07
2.7104e-06
1.96317e-07
2.69785e-06
-5.56759e-08
2.7058e-06
4.0465e-08
2.69795e-06
5.63982e-08
2.70746e-06
1.29616e-07
2.70993e-06
1.26348e-07
2.70886e-06
2.49538e-08
2.70872e-06
7.79212e-09
2.69933e-06
-4.05306e-08
2.69335e-06
-3.73827e-08
2.687e-06
1.39376e-08
2.68109e-06
5.85746e-08
1.19345e-07
2.68224e-06
2.84402e-06
3.4083e-07
2.84654e-06
-2.11666e-09
2.8321e-06
-3.25795e-07
2.83968e-06
2.37461e-07
2.83828e-06
-6.61957e-08
2.84504e-06
2.14295e-07
2.82569e-06
-3.55773e-07
2.83981e-06
1.82193e-07
2.82717e-06
-4.30331e-08
2.83498e-06
3.26481e-08
2.82772e-06
6.36614e-08
2.83639e-06
1.20949e-07
2.83954e-06
1.232e-07
2.8378e-06
2.66918e-08
2.83764e-06
7.95029e-09
2.82859e-06
-3.14772e-08
2.82193e-06
-3.07235e-08
2.81627e-06
1.95907e-08
2.81076e-06
6.40912e-08
1.18464e-07
2.81164e-06
2.97999e-06
3.33733e-07
2.98213e-06
-4.25267e-09
2.968e-06
-3.1167e-07
2.97523e-06
2.3023e-07
2.97406e-06
-6.50221e-08
2.98058e-06
2.07776e-07
2.96122e-06
-3.36415e-07
2.97537e-06
1.68042e-07
2.96272e-06
-3.03826e-08
2.9703e-06
2.50709e-08
2.96371e-06
7.02525e-08
2.97148e-06
1.13172e-07
2.97525e-06
1.19438e-07
2.97295e-06
2.89912e-08
2.97265e-06
8.24503e-09
2.96403e-06
-2.28515e-08
2.9568e-06
-2.3501e-08
2.95165e-06
2.47437e-08
2.94676e-06
6.89844e-08
1.17935e-07
2.94729e-06
3.12247e-06
3.26271e-07
3.12416e-06
-5.9412e-09
3.11047e-06
-2.97979e-07
3.11721e-06
2.23484e-07
3.11637e-06
-6.41814e-08
3.12257e-06
2.01575e-07
3.10328e-06
-3.17123e-07
3.11739e-06
1.5393e-07
3.1048e-06
-1.77872e-08
3.11205e-06
1.78151e-08
3.1062e-06
7.61048e-08
3.11306e-06
1.06313e-07
3.11737e-06
1.15128e-07
3.11459e-06
3.17721e-08
3.11406e-06
8.77549e-09
3.10591e-06
-1.47007e-08
3.09825e-06
-1.58387e-08
3.09345e-06
2.95406e-08
3.08931e-06
7.31245e-08
1.17682e-07
3.08956e-06
3.27176e-06
3.18424e-07
3.27293e-06
-7.11628e-09
3.2598e-06
-2.84851e-07
3.26593e-06
2.17355e-07
3.26551e-06
-6.37594e-08
3.27135e-06
1.95739e-07
3.25215e-06
-2.97929e-07
3.2662e-06
1.39882e-07
3.2537e-06
-5.28425e-09
3.26057e-06
1.09382e-08
3.25552e-06
8.11581e-08
3.26141e-06
1.00419e-07
3.26623e-06
1.10308e-07
3.26302e-06
3.49903e-08
3.26215e-06
9.6379e-09
3.25453e-06
-7.07163e-09
3.24654e-06
-7.85152e-09
3.242e-06
3.40817e-08
3.23863e-06
7.64888e-08
1.175e-07
3.23881e-06
3.42818e-06
3.10173e-07
3.42878e-06
-7.71045e-09
3.41634e-06
-2.72413e-07
3.42173e-06
2.11964e-07
3.42178e-06
-6.38123e-08
3.42725e-06
1.90276e-07
3.40814e-06
-2.78821e-07
3.42213e-06
1.25889e-07
3.40973e-06
7.11341e-09
3.41618e-06
4.48783e-09
3.412e-06
8.534e-08
3.41685e-06
9.55733e-08
3.42218e-06
1.04975e-07
3.41855e-06
3.86235e-08
3.41723e-06
1.09572e-08
3.41025e-06
-9.53336e-11
3.40202e-06
3.76694e-10
3.39764e-06
3.84671e-08
3.39499e-06
7.91361e-08
1.17139e-07
3.39535e-06
3.59209e-06
3.01498e-07
3.59203e-06
-7.65621e-09
3.58041e-06
-2.60788e-07
3.58496e-06
2.07414e-07
3.5855e-06
-6.43543e-08
3.59064e-06
1.85137e-07
3.57155e-06
-2.59736e-07
3.58554e-06
1.11897e-07
3.57325e-06
1.94119e-08
3.57921e-06
-1.4793e-09
3.576e-06
8.85497e-08
3.57967e-06
9.19017e-08
3.58553e-06
9.9117e-08
3.58154e-06
4.26158e-08
3.57961e-06
1.28878e-08
3.57341e-06
6.1063e-09
3.5651e-06
8.68605e-09
3.56073e-06
4.28325e-08
3.55869e-06
8.11798e-08
1.16397e-07
3.55943e-06
3.76382e-06
2.92383e-07
3.76305e-06
-6.88911e-09
3.75235e-06
-2.50087e-07
3.756e-06
2.0377e-07
3.75699e-06
-6.53459e-08
3.76191e-06
1.80219e-07
3.74273e-06
-2.40564e-07
3.7568e-06
9.78286e-08
3.74461e-06
3.16071e-08
3.75e-06
-6.86728e-09
3.74791e-06
9.06377e-08
3.75024e-06
8.95733e-08
3.75661e-06
9.27462e-08
3.75242e-06
4.6805e-08
3.74967e-06
1.5631e-08
3.74429e-06
1.14928e-08
3.73615e-06
1.68208e-08
3.73169e-06
4.72949e-08
3.73009e-06
8.27838e-08
1.15176e-07
3.73131e-06
3.94376e-06
2.82814e-07
3.94222e-06
-5.34797e-09
3.93253e-06
-2.40396e-07
3.93525e-06
2.01042e-07
3.93659e-06
-6.66812e-08
3.94146e-06
1.75353e-07
3.92204e-06
-2.21148e-07
3.93628e-06
8.35919e-08
3.92422e-06
4.36614e-08
3.92886e-06
-1.1501e-08
3.92812e-06
9.13778e-08
3.92892e-06
8.87707e-08
3.9357e-06
8.59691e-08
3.93163e-06
5.08732e-08
3.92784e-06
1.94208e-08
3.92318e-06
1.61552e-08
3.91555e-06
2.44459e-08
3.91094e-06
5.19047e-08
3.90959e-06
8.41296e-08
1.13521e-07
3.91125e-06
4.13229e-06
2.72778e-07
4.12992e-06
-2.97861e-09
4.12129e-06
-2.31772e-07
4.12316e-06
1.99173e-07
4.12466e-06
-6.81814e-08
4.12971e-06
1.70309e-07
4.10986e-06
-2.01299e-07
4.12434e-06
6.91131e-08
4.11253e-06
5.54653e-08
4.11613e-06
-1.51034e-08
4.11701e-06
9.05069e-08
4.1162e-06
8.95717e-08
4.12309e-06
7.90811e-08
4.11956e-06
5.44051e-08
4.1146e-06
2.43807e-08
4.11041e-06
2.0342e-08
4.10362e-06
3.12423e-08
4.09893e-06
5.65877e-08
4.09768e-06
8.53881e-08
1.11606e-07
4.09959e-06
4.32981e-06
2.62271e-07
4.32657e-06
2.61335e-10
4.31903e-06
-2.24236e-07
4.32017e-06
1.98039e-07
4.32159e-06
-6.96019e-08
4.32708e-06
1.64813e-07
4.30661e-06
-1.80828e-07
4.32135e-06
5.43766e-08
4.31001e-06
6.68049e-08
4.3122e-06
-1.72953e-08
4.31492e-06
8.77864e-08
4.31263e-06
9.18658e-08
4.31911e-06
7.2595e-08
4.31657e-06
5.69495e-08
4.31052e-06
3.04259e-08
4.30643e-06
2.44353e-08
4.30067e-06
3.69988e-08
4.29611e-06
6.1152e-08
4.29482e-06
8.66787e-08
1.09663e-07
4.29676e-06
4.53675e-06
2.51295e-07
4.53261e-06
4.39814e-09
4.52614e-06
-2.17764e-07
4.52674e-06
1.97443e-07
4.52777e-06
-7.06372e-08
4.53402e-06
1.58564e-07
4.51276e-06
-1.59567e-07
4.52768e-06
3.9455e-08
4.51713e-06
7.73579e-08
4.51748e-06
-1.76486e-08
4.52217e-06
8.30957e-08
4.51874e-06
9.52964e-08
4.52415e-06
6.71924e-08
4.52295e-06
5.81407e-08
4.51614e-06
3.72358e-08
4.51173e-06
2.8849e-08
4.50706e-06
4.16743e-08
4.50287e-06
6.53389e-08
4.50152e-06
8.80298e-08
1.07886e-07
4.5033e-06
4.75355e-06
2.3986e-07
4.74851e-06
9.43577e-09
4.74303e-06
-2.12284e-07
4.74336e-06
1.97115e-07
4.74366e-06
-7.09349e-08
4.75096e-06
1.51265e-07
4.72882e-06
-1.3743e-07
4.74371e-06
2.4565e-08
4.73439e-06
8.66812e-08
4.73252e-06
-1.57774e-08
4.73906e-06
7.65474e-08
4.73507e-06
9.9293e-08
4.73873e-06
6.35333e-08
4.73902e-06
5.78439e-08
4.73198e-06
4.42788e-08
4.7269e-06
3.39284e-08
4.72315e-06
4.54289e-08
4.71961e-06
6.88735e-08
4.71826e-06
8.93861e-08
1.06349e-07
4.71979e-06
4.98067e-06
2.27989e-07
4.97476e-06
1.53471e-08
4.97014e-06
-2.07671e-07
4.97055e-06
1.96714e-07
4.96972e-06
-7.01105e-08
4.97832e-06
1.4267e-07
4.95534e-06
-1.14455e-07
4.96983e-06
1.00794e-08
4.96225e-06
9.42581e-08
4.9579e-06
-1.14289e-08
4.96592e-06
6.85286e-08
4.96208e-06
1.03135e-07
4.96352e-06
6.20862e-08
4.96509e-06
5.62808e-08
4.95847e-06
5.0895e-08
4.95256e-06
3.98442e-08
4.94941e-06
4.85729e-08
4.94672e-06
7.15618e-08
4.9455e-06
9.06119e-08
1.05017e-07
4.94683e-06
5.21859e-06
2.15716e-07
5.21187e-06
2.20646e-08
5.20794e-06
-2.03737e-07
5.20881e-06
1.95845e-07
5.20648e-06
-6.77838e-08
5.21651e-06
1.32636e-07
5.19291e-06
-9.0853e-08
5.20647e-06
-3.47813e-09
5.20115e-06
9.95819e-08
5.19429e-06
-4.5706e-09
5.20315e-06
5.96676e-08
5.2002e-06
1.06082e-07
5.19925e-06
6.30431e-08
5.20154e-06
5.39864e-08
5.19603e-06
5.64044e-08
5.18931e-06
4.65673e-08
5.18637e-06
5.1515e-08
5.18463e-06
7.32942e-08
5.18368e-06
9.15607e-08
1.03778e-07
5.18492e-06
5.46781e-06
2.03093e-07
5.4604e-06
2.94731e-08
5.4569e-06
-2.00233e-07
5.45868e-06
1.94068e-07
5.45451e-06
-6.36187e-08
5.46596e-06
1.21186e-07
5.44216e-06
-6.70558e-08
5.45415e-06
-1.5462e-08
5.45147e-06
1.02255e-07
5.44233e-06
4.57176e-09
5.45127e-06
5.07293e-08
5.44982e-06
1.07537e-07
5.44663e-06
6.62321e-08
5.44891e-06
5.16983e-08
5.445e-06
6.03202e-08
5.43781e-06
5.37593e-08
5.4346e-06
5.47247e-08
5.43379e-06
7.4097e-08
5.4333e-06
9.20564e-08
1.02549e-07
5.43453e-06
5.72886e-06
1.90187e-07
5.72094e-06
3.73975e-08
5.71755e-06
-1.96844e-07
5.72066e-06
1.90955e-07
5.71444e-06
-5.73939e-08
5.72707e-06
1.08557e-07
5.70368e-06
-4.36699e-08
5.71345e-06
-2.52318e-08
5.7136e-06
1.02105e-07
5.70265e-06
1.55241e-08
5.71087e-06
4.25058e-08
5.71131e-06
1.07099e-07
5.7063e-06
7.12437e-08
5.7079e-06
5.0104e-08
5.70572e-06
6.24952e-08
5.69863e-06
6.0845e-08
5.69479e-06
5.85728e-08
5.69469e-06
7.41935e-08
5.69485e-06
9.1894e-08
1.01314e-07
5.69609e-06
6.0023e-06
1.77081e-07
5.99408e-06
4.56108e-08
5.99045e-06
-1.93209e-07
5.99525e-06
1.8615e-07
5.98695e-06
-4.9085e-08
6.00033e-06
9.51695e-08
5.97803e-06
-2.13674e-08
5.98506e-06
-3.22646e-08
5.98794e-06
9.92275e-08
5.97585e-06
2.76116e-08
5.98261e-06
3.57493e-08
5.9851e-06
1.04612e-07
5.97892e-06
7.74219e-08
5.97917e-06
4.98514e-08
5.97865e-06
6.30186e-08
5.97229e-06
6.72003e-08
5.96769e-06
6.31765e-08
5.96786e-06
7.40201e-08
5.96887e-06
9.08855e-08
1.00012e-07
5.97017e-06
6.28869e-06
1.63878e-07
6.28045e-06
5.38483e-08
6.27618e-06
-1.88937e-07
6.2829e-06
1.79435e-07
6.27275e-06
-3.89343e-08
6.28633e-06
8.15888e-08
6.26571e-06
-7.53958e-10
6.26972e-06
-3.62717e-08
6.27497e-06
9.39751e-08
6.26247e-06
4.011e-08
6.26722e-06
3.10002e-08
6.27162e-06
1.00217e-07
6.26505e-06
8.39883e-08
6.26357e-06
5.13306e-08
6.26427e-06
6.23232e-08
6.25925e-06
7.22172e-08
6.25407e-06
6.83613e-08
6.25396e-06
7.41219e-08
6.25587e-06
8.89756e-08
9.84375e-08
6.25745e-06
6.58866e-06
1.50692e-07
6.58068e-06
6.18263e-08
6.57537e-06
-1.83629e-07
6.58405e-06
1.7076e-07
6.57256e-06
-2.74478e-08
6.5857e-06
6.84522e-08
6.56725e-06
1.7692e-08
6.56815e-06
-3.71743e-08
6.57529e-06
8.68328e-08
6.56306e-06
5.23427e-08
6.56547e-06
2.85892e-08
6.57149e-06
9.41991e-08
6.56523e-06
9.02459e-08
6.56194e-06
5.46256e-08
6.56322e-06
6.10391e-08
6.55995e-06
7.54889e-08
6.55462e-06
7.36922e-08
6.55381e-06
7.49332e-08
6.55637e-06
8.64142e-08
9.62459e-08
6.55856e-06
6.90284e-06
1.37644e-07
6.89539e-06
6.9271e-08
6.8887e-06
-1.76932e-07
6.89922e-06
1.6024e-07
6.88706e-06
-1.52887e-08
6.8992e-06
5.63152e-08
6.88315e-06
3.37368e-08
6.88113e-06
-3.51515e-08
6.88957e-06
7.83925e-08
6.8782e-06
6.37088e-08
6.87813e-06
2.86639e-08
6.8853e-06
8.70255e-08
6.88011e-06
9.54406e-08
6.87508e-06
5.96518e-08
6.87627e-06
5.98538e-08
6.87485e-06
7.69082e-08
6.86995e-06
7.85853e-08
6.8683e-06
7.65849e-08
6.87094e-06
8.37772e-08
9.31397e-08
6.87404e-06
7.23192e-06
1.24858e-07
7.22526e-06
7.5934e-08
7.21692e-06
-1.68594e-07
7.22901e-06
1.48152e-07
7.2169e-06
-3.1841e-09
7.2276e-06
4.56193e-08
7.21402e-06
4.73212e-08
7.20939e-06
-3.053e-08
7.21853e-06
6.92584e-08
7.20856e-06
7.36755e-08
7.20593e-06
3.1293e-08
7.21376e-06
7.92016e-08
7.21019e-06
9.90076e-08
7.20382e-06
6.60205e-08
7.20428e-06
5.93907e-08
7.20446e-06
7.67304e-08
7.20059e-06
8.24613e-08
7.19831e-06
7.88602e-08
7.2004e-06
8.16909e-08
8.92304e-08
7.20431e-06
7.57663e-06
1.12454e-07
7.57096e-06
8.16008e-08
7.5609e-06
-1.58527e-07
7.57412e-06
1.34924e-07
7.5627e-06
8.24408e-09
7.57175e-06
3.65633e-08
7.56053e-06
5.85462e-08
7.55364e-06
-2.36458e-08
7.563e-06
5.99007e-08
7.55479e-06
8.18851e-08
7.54979e-06
3.62919e-08
7.55753e-06
7.14611e-08
7.55602e-06
1.00518e-07
7.54894e-06
7.31001e-08
7.54822e-06
6.01175e-08
7.54947e-06
7.54736e-08
7.54704e-06
8.48936e-08
7.54453e-06
8.13694e-08
7.54583e-06
8.03937e-08
8.51737e-08
7.54988e-06
7.93773e-06
1.00536e-07
7.93321e-06
8.6125e-08
7.92159e-06
-1.46913e-07
7.93538e-06
1.21138e-07
7.92501e-06
1.86118e-08
7.93248e-06
2.90956e-08
7.92347e-06
6.75531e-08
7.91456e-06
-1.47343e-08
7.92371e-06
5.07493e-08
7.91762e-06
8.79729e-08
7.9106e-06
4.331e-08
7.91741e-06
6.46579e-08
7.91818e-06
9.97437e-08
7.91116e-06
8.01214e-08
7.90894e-06
6.23434e-08
7.91081e-06
7.36e-08
7.90988e-06
8.582e-08
7.90755e-06
8.37054e-08
7.90825e-06
7.96906e-08
8.16219e-08
7.9118e-06
8.31603e-06
8.91909e-08
8.31273e-06
8.9417e-08
8.29991e-06
-1.34093e-07
8.3136e-06
1.07457e-07
8.30449e-06
2.77161e-08
8.31058e-06
2.30067e-08
8.30367e-06
7.44655e-08
8.29296e-06
-4.02367e-09
8.3014e-06
4.23052e-08
8.29779e-06
9.15811e-08
8.28921e-06
5.18922e-08
8.29443e-06
5.94429e-08
8.29733e-06
9.68368e-08
8.29106e-06
8.6395e-08
8.28748e-06
6.59213e-08
8.28936e-06
7.17177e-08
8.28987e-06
8.53164e-08
8.28804e-06
8.55289e-08
8.28829e-06
7.94421e-08
7.85803e-08
8.29133e-06
8.71236e-06
7.84899e-08
8.71034e-06
9.14407e-08
8.69668e-06
-1.20434e-07
8.70971e-06
9.44292e-08
8.70187e-06
3.55499e-08
8.70684e-06
1.80439e-08
8.702e-06
7.92987e-08
8.68975e-06
8.2305e-09
8.69689e-06
3.51653e-08
8.69595e-06
9.25189e-08
8.68658e-06
6.12662e-08
8.68967e-06
5.63463e-08
8.69415e-06
9.2356e-08
8.68937e-06
9.11797e-08
8.68481e-06
7.04821e-08
8.68603e-06
7.04936e-08
8.68784e-06
8.35064e-08
8.68677e-06
8.6601e-08
8.68667e-06
7.95442e-08
7.59245e-08
8.68932e-06
9.12762e-06
6.84859e-08
9.12685e-06
9.2217e-08
9.11272e-06
-1.06302e-07
9.12471e-06
8.24309e-08
9.11803e-06
4.22363e-08
9.12199e-06
1.40847e-08
9.11938e-06
8.19051e-08
9.10595e-06
2.16599e-08
9.11101e-06
3.01032e-08
9.11277e-06
9.07617e-08
9.10363e-06
7.04092e-08
9.10412e-06
5.58524e-08
9.10957e-06
8.69107e-08
9.1068e-06
9.39462e-08
9.10177e-06
7.55152e-08
9.10188e-06
7.0384e-08
9.10461e-06
8.07762e-08
9.10464e-06
8.65642e-08
9.10426e-06
7.99299e-08
7.37494e-08
9.10643e-06
9.56273e-06
5.92171e-08
9.56313e-06
9.18137e-08
9.54887e-06
-9.20393e-08
9.55969e-06
7.16134e-08
9.55393e-06
4.79952e-08
9.5568e-06
1.12144e-08
9.55657e-06
8.21332e-08
9.54262e-06
3.56126e-08
9.54492e-06
2.77967e-08
9.5489e-06
8.67833e-08
9.54098e-06
7.8334e-08
9.53905e-06
5.77801e-08
9.54465e-06
8.13053e-08
9.54392e-06
9.46788e-08
9.53916e-06
8.02763e-08
9.53819e-06
7.13517e-08
9.54089e-06
7.80797e-08
9.54244e-06
8.5013e-08
9.542e-06
8.03667e-08
7.22362e-08
9.54352e-06
1.00186e-05
5.07079e-08
1.00201e-05
9.03256e-08
1.0006e-05
-7.79313e-08
1.00156e-05
6.19935e-08
1.00106e-05
5.30366e-08
1.00122e-05
9.5976e-09
1.00143e-05
8.00095e-08
1.00008e-05
4.91526e-08
9.99982e-06
2.87846e-08
1.00053e-05
8.13075e-08
9.99931e-06
8.43107e-08
9.99567e-06
6.14282e-08
1.00004e-05
7.65674e-08
1.00016e-05
9.34933e-08
9.9978e-06
8.40627e-08
9.99592e-06
7.32338e-08
9.99811e-06
7.58909e-08
1.00007e-05
8.24536e-08
1.0001e-05
8.00468e-08
7.14714e-08
1.00018e-05
1.04964e-05
4.29699e-08
1.04988e-05
8.7869e-08
1.04851e-05
-6.42124e-08
1.04936e-05
5.35403e-08
1.04891e-05
5.74715e-08
1.04893e-05
9.47289e-09
1.04935e-05
7.57576e-08
1.04814e-05
6.12902e-08
1.04772e-05
3.29227e-08
1.0483e-05
7.55512e-08
1.04795e-05
8.78419e-08
1.04748e-05
6.60845e-08
1.04781e-05
7.32427e-08
1.04808e-05
9.07907e-08
1.04783e-05
8.65842e-08
1.04761e-05
7.54575e-08
1.04776e-05
7.4401e-08
1.04805e-05
7.95742e-08
1.0482e-05
7.85496e-08
7.10783e-08
1.04823e-05
1.0997e-05
3.60077e-08
1.10003e-05
8.45723e-08
1.09871e-05
-5.10745e-08
1.09945e-05
4.61923e-08
1.09907e-05
6.12951e-08
1.09891e-05
1.10782e-08
1.09949e-05
6.99036e-08
1.09852e-05
7.0973e-08
1.09785e-05
3.96508e-08
1.09833e-05
7.07459e-08
1.09822e-05
8.89388e-08
1.09774e-05
7.08515e-08
1.09792e-05
7.14686e-08
1.09827e-05
8.73425e-08
1.09816e-05
8.76324e-08
1.09795e-05
7.75253e-08
1.09804e-05
7.35681e-08
1.09832e-05
7.67661e-08
1.09855e-05
7.62663e-08
7.01709e-08
1.09864e-05
1.15215e-05
2.98235e-08
1.15256e-05
8.05571e-08
1.15131e-05
-3.86526e-08
1.15194e-05
3.98882e-08
1.15164e-05
6.43414e-08
1.1513e-05
1.45065e-08
1.15196e-05
6.33081e-08
1.15131e-05
7.74225e-08
1.15047e-05
4.80485e-08
1.15078e-05
6.7671e-08
1.15086e-05
8.81306e-08
1.15045e-05
7.49758e-08
1.15049e-05
7.10415e-08
1.15084e-05
8.38592e-08
1.15088e-05
8.71953e-08
1.15072e-05
7.91758e-08
1.15076e-05
7.31725e-08
1.15101e-05
7.42279e-08
1.15126e-05
7.37797e-08
6.84448e-08
1.15143e-05
1.20712e-05
2.44155e-08
1.20758e-05
7.59527e-08
1.20642e-05
-2.70345e-08
1.20695e-05
3.45712e-08
1.20674e-05
6.64301e-08
1.20623e-05
1.9613e-08
1.20687e-05
5.69111e-08
1.20657e-05
8.04073e-08
1.2057e-05
5.67882e-08
1.20579e-05
6.67616e-08
1.20597e-05
8.63151e-08
1.20568e-05
7.78687e-08
1.20564e-05
7.14877e-08
1.20595e-05
8.07612e-08
1.2061e-05
8.56404e-08
1.20601e-05
8.00849e-08
1.20602e-05
7.31368e-08
1.20625e-05
7.19522e-08
1.20649e-05
7.13774e-08
6.63183e-08
1.2067e-05
1.26472e-05
1.97791e-08
1.26523e-05
7.08754e-08
1.26416e-05
-1.62839e-08
1.26459e-05
3.02436e-08
1.2645e-05
6.7359e-08
1.26385e-05
2.60843e-08
1.26439e-05
5.14956e-08
1.26439e-05
8.03803e-08
1.26363e-05
6.44465e-08
1.26352e-05
6.78719e-08
1.26371e-05
8.44205e-08
1.26355e-05
7.94346e-08
1.26348e-05
7.22071e-08
1.26374e-05
7.81315e-08
1.26396e-05
8.346e-08
1.26397e-05
7.99967e-08
1.26394e-05
7.33631e-08
1.26414e-05
7.00315e-08
1.26438e-05
6.89738e-08
6.42949e-08
1.26458e-05
1.32508e-05
1.59037e-08
1.32563e-05
6.54254e-08
1.32464e-05
-6.4488e-09
1.32497e-05
2.69232e-08
1.325e-05
6.70587e-08
1.32429e-05
3.32211e-08
1.32465e-05
4.79208e-08
1.32489e-05
7.79811e-08
1.32433e-05
7.00754e-08
1.32408e-05
7.03116e-08
1.32422e-05
8.30511e-08
1.32415e-05
8.01454e-08
1.32411e-05
7.26154e-08
1.32434e-05
7.58312e-08
1.32459e-05
8.09701e-08
1.32468e-05
7.9033e-08
1.32468e-05
7.33312e-08
1.32481e-05
6.87357e-08
1.32506e-05
6.65195e-08
6.24374e-08
1.32525e-05
1.38833e-05
1.27663e-08
1.3889e-05
5.96998e-08
1.38801e-05
2.46877e-09
1.38824e-05
2.46055e-08
1.38839e-05
6.55398e-08
1.38768e-05
4.03936e-08
1.38782e-05
4.65257e-08
1.3882e-05
7.41665e-08
1.38788e-05
7.32917e-08
1.38761e-05
7.29905e-08
1.38766e-05
8.25121e-08
1.38763e-05
8.04753e-08
1.38763e-05
7.26353e-08
1.38785e-05
7.35784e-08
1.38813e-05
7.81666e-08
1.38828e-05
7.75973e-08
1.38834e-05
7.27174e-08
1.38843e-05
6.78561e-08
1.38865e-05
6.42588e-08
6.05543e-08
1.38884e-05
1.45461e-05
1.03288e-08
1.4552e-05
5.38275e-08
1.45441e-05
1.03602e-08
1.45453e-05
2.34014e-08
1.45479e-05
6.29553e-08
1.45414e-05
4.69137e-08
1.45407e-05
4.71401e-08
1.45448e-05
7.01152e-08
1.45439e-05
7.41381e-08
1.4542e-05
7.49049e-08
1.45419e-05
8.26487e-08
1.45416e-05
8.081e-08
1.45416e-05
7.25723e-08
1.4544e-05
7.12054e-08
1.45472e-05
7.49541e-08
1.45491e-05
7.56717e-08
1.45501e-05
7.17744e-08
1.45509e-05
6.70552e-08
1.45526e-05
6.25383e-08
5.83601e-08
1.45548e-05
1.52407e-05
8.53103e-09
1.52466e-05
4.79472e-08
1.52398e-05
1.71187e-08
1.52398e-05
2.33719e-08
1.52432e-05
5.95919e-08
1.52379e-05
5.21836e-08
1.52357e-05
4.93395e-08
1.52391e-05
6.6745e-08
1.52402e-05
7.30602e-08
1.52395e-05
7.55345e-08
1.52394e-05
8.27505e-08
1.52388e-05
8.14335e-08
1.52387e-05
7.27139e-08
1.5241e-05
6.8907e-08
1.52446e-05
7.13521e-08
1.52472e-05
7.30165e-08
1.52484e-05
7.05602e-08
1.52494e-05
6.6119e-08
1.52503e-05
6.15834e-08
5.62193e-08
1.52525e-05
1.59686e-05
7.28864e-09
1.59743e-05
4.22165e-08
1.59688e-05
2.26293e-08
1.59676e-05
2.4517e-08
1.59714e-05
5.58205e-08
1.59678e-05
5.58179e-08
1.59646e-05
5.2499e-08
1.59668e-05
6.45493e-08
1.5969e-05
7.0856e-08
1.59698e-05
7.47828e-08
1.59705e-05
8.20662e-08
1.59697e-05
8.21681e-08
1.59691e-05
7.32927e-08
1.5971e-05
6.70375e-08
1.59749e-05
6.75122e-08
1.59782e-05
6.96354e-08
1.59801e-05
6.87342e-08
1.59811e-05
6.51235e-08
1.59817e-05
6.09746e-08
5.49219e-08
1.5983e-05
1.67314e-05
6.49264e-09
1.67368e-05
3.68387e-08
1.67326e-05
2.67751e-08
1.67305e-05
2.66877e-08
1.67341e-05
5.21469e-08
1.67323e-05
5.76407e-08
1.67289e-05
5.5897e-08
1.67298e-05
6.36448e-08
1.67323e-05
6.83971e-08
1.67343e-05
7.27204e-08
1.67361e-05
8.031e-08
1.67359e-05
8.23984e-08
1.67348e-05
7.43449e-08
1.67359e-05
6.59713e-08
1.67396e-05
6.38032e-08
1.67436e-05
6.56134e-08
1.67461e-05
6.62424e-08
1.67476e-05
6.36484e-08
1.6748e-05
6.05002e-08
5.43904e-08
1.67486e-05
1.75308e-05
6.01574e-09
1.75357e-05
3.20157e-08
1.75329e-05
2.95162e-08
1.753e-05
2.95563e-08
1.75331e-05
4.90839e-08
1.7533e-05
5.77878e-08
1.75301e-05
5.87512e-08
1.75299e-05
6.39012e-08
1.75319e-05
6.6349e-08
1.75349e-05
6.9744e-08
1.75377e-05
7.75096e-08
1.75386e-05
8.14997e-08
1.75374e-05
7.55462e-08
1.75376e-05
6.57771e-08
1.75405e-05
6.08357e-08
1.7545e-05
6.11384e-08
1.75482e-05
6.30948e-08
1.75502e-05
6.16079e-08
1.75513e-05
5.94284e-08
5.44769e-08
1.75512e-05
1.83686e-05
5.71998e-09
1.83727e-05
2.7917e-08
1.83713e-05
3.09296e-08
1.83682e-05
3.2701e-08
1.83703e-05
4.69949e-08
1.83714e-05
5.6657e-08
1.83697e-05
6.04564e-08
1.83687e-05
6.48725e-08
1.837e-05
6.50757e-08
1.83732e-05
6.65004e-08
1.8377e-05
7.37853e-08
1.83792e-05
7.92505e-08
1.83785e-05
7.6271e-08
1.8378e-05
6.62811e-08
1.83798e-05
5.90324e-08
1.83841e-05
5.67842e-08
1.83881e-05
5.90931e-08
1.83906e-05
5.91855e-08
1.83925e-05
5.74611e-08
5.43658e-08
1.83926e-05
1.92466e-05
5.47877e-09
1.92499e-05
2.4654e-08
1.92496e-05
3.12002e-08
1.92467e-05
3.56389e-08
1.92476e-05
4.60549e-08
1.92495e-05
5.47901e-08
1.92492e-05
6.07198e-08
1.92482e-05
6.59286e-08
1.92486e-05
6.468e-08
1.92515e-05
6.35715e-08
1.92558e-05
6.94407e-08
1.92593e-05
7.57769e-08