/*--------------------------------*- C++ -*----------------------------------*\
| =========                 |                                                 |
| \\      /  F ield         | OpenFOAM: The Open Source CFD Toolbox           |
|  \\    /   O peration     | Version:  2106                                  |
|   \\  /    A nd           | Website:  www.openfoam.com                      |
|    \\/     M anipulation  |                                                 |
\*---------------------------------------------------------------------------*/
FoamFile
{
    version     2.0;
    format      ascii;
    arch        "LSB;label=32;scalar=64";
    class       volScalarField;
    location    "0.07";
    object      p;
}
// * * * * * * * * * * * * * * * * * * * * * * * * * * * * * * * * * * * * * //

dimensions      [0 2 -2 0 0 0 0];

internalField   nonuniform List<scalar> 
9600
(
3.11425e-11
0.00119592
-0.00111194
0.00122872
-0.00123423
0.00249787
0.00316819
0.00165618
0.00289524
0.00376799
0.0040607
0.00497052
0.00568125
0.00670232
0.00765824
0.0100308
0.00949673
0.0102201
0.0126822
0.0170338
7.86875e-07
0.00119395
-0.00110796
0.0012246
-0.00122863
0.0024937
0.00316686
0.00165744
0.00290006
0.00376344
0.00406014
0.00496755
0.00568879
0.00663874
0.00765761
0.00991038
0.0095203
0.0101717
0.0126891
0.0167525
1.76177e-06
0.00119157
-0.00110229
0.00122057
-0.00121947
0.00248322
0.00316421
0.00166073
0.00290941
0.0037573
0.00405529
0.00496668
0.00570216
0.0066064
0.00765298
0.00981969
0.00953671
0.010153
0.0126734
0.0163298
2.80219e-06
0.00118963
-0.00109486
0.00122215
-0.00120432
0.00247199
0.00315778
0.00166564
0.00292488
0.00375207
0.00404466
0.00496893
0.00572078
0.00657181
0.00764872
0.0097272
0.00954657
0.0101399
0.0126261
0.0159238
3.99914e-06
0.00118808
-0.00108488
0.00122955
-0.00118172
0.00246141
0.00314626
0.00167178
0.00294657
0.00374665
0.00402987
0.00497334
0.00574268
0.00652719
0.00764579
0.00963386
0.00955758
0.0101219
0.0125512
0.0155454
5.37713e-06
0.00118684
-0.0010722
0.00124119
-0.00115184
0.00245034
0.00312996
0.00167879
0.00297287
0.00374038
0.00401293
0.00497844
0.00576599
0.00648101
0.00764334
0.00954055
0.00956723
0.0100951
0.0124506
0.0151903
6.93616e-06
0.00118582
-0.00105714
0.00125562
-0.00111615
0.00243801
0.00311048
0.00168609
0.00300215
0.00373356
0.00399516
0.00498274
0.00578975
0.00643492
0.00763957
0.00944731
0.00957122
0.0100617
0.0123266
0.01485
8.68072e-06
0.00118494
-0.00104016
0.0012717
-0.00107629
0.00242443
0.00308945
0.0016931
0.00303329
0.00372646
0.00397716
0.00498543
0.00581345
0.00638922
0.00763333
0.00935442
0.00956733
0.0100239
0.0121794
0.0145167
1.06195e-05
0.0011841
-0.00102161
0.00128863
-0.0010335
0.00240982
0.00306794
0.0016995
0.0030655
0.00371907
0.00395931
0.00498632
0.00583655
0.00634384
0.00762378
0.00926284
0.00955419
0.00998229
0.0120088
0.0141869
1.27657e-05
0.00118324
-0.00100168
0.00130593
-0.00098847
0.00239435
0.00304656
0.00170504
0.00309827
0.00371133
0.0039418
0.00498548
0.00585864
0.00629885
0.00760992
0.00917378
0.00953023
0.00993696
0.0118161
0.0138578
1.51377e-05
0.00118233
-0.000980472
0.0013233
-0.000941541
0.00237809
0.00302565
0.00170959
0.00313132
0.0037032
0.00392474
0.00498306
0.00587923
0.00625452
0.00759073
0.00908823
0.00949406
0.00988757
0.0116043
0.0135253
1.77579e-05
0.00118134
-0.000957969
0.00134059
-0.000892829
0.00236099
0.00300541
0.00171306
0.00316445
0.00369467
0.00390812
0.00497924
0.00589775
0.00621129
0.00756517
0.00900684
0.00944479
0.00983297
0.0113766
0.0131954
2.06519e-05
0.00118025
-0.000934127
0.00135764
-0.000842349
0.00234296
0.00298603
0.00171535
0.00319751
0.00368577
0.00389184
0.00497426
0.00591361
0.00616973
0.00753228
0.00892983
0.00938198
0.00977127
0.0111376
0.0128476
2.38479e-05
0.00117903
-0.000908884
0.00137433
-0.00079007
0.00232386
0.00296771
0.0017164
0.00323037
0.00367659
0.00387569
0.00496845
0.00592613
0.00613043
0.00749135
0.00885699
0.00930611
0.00970037
0.0108927
0.0124884
2.73768e-05
0.00117766
-0.000882169
0.00139051
-0.000735946
0.00230356
0.00295062
0.00171613
0.00326285
0.00366728
0.00385938
0.00496211
0.00593455
0.0060939
0.00744191
0.00878735
0.00921847
0.00962065
0.0106469
0.0121204
3.1272e-05
0.00117613
-0.000853912
0.00140603
-0.000679927
0.00228189
0.00293497
0.00171452
0.0032947
0.00365809
0.00384258
0.00495562
0.00593816
0.00606038
0.00738368
0.00871938
0.00912123
0.00951596
0.0104029
0.0117463
3.55695e-05
0.00117439
-0.000824039
0.00142075
-0.00062196
0.00225868
0.00292092
0.00171154
0.00332566
0.00364922
0.00382489
0.00494952
0.00593631
0.00602984
0.00731684
0.00865109
0.00901708
0.00939139
0.0101617
0.01137
4.03077e-05
0.00117244
-0.000792478
0.00143448
-0.000561995
0.00223377
0.00290866
0.00170723
0.00335541
0.003641
0.00380571
0.00494432
0.00592852
0.00600193
0.00724221
0.00857978
0.00890846
0.00924678
0.00992306
0.0109962
4.55278e-05
0.00117022
-0.000759158
0.00144705
-0.000499983
0.002207
0.00289833
0.00170166
0.00338355
0.00363394
0.00378442
0.00494031
0.00591461
0.00597589
0.00716106
0.00850249
0.00879727
0.00908387
0.00968455
0.0106293
5.12736e-05
0.00116772
-0.000724013
0.00145828
-0.000435881
0.0021782
0.00289005
0.00169498
0.00340958
0.00362857
0.00376043
0.00493765
0.0058945
0.0059525
0.00707547
0.00841624
0.00868427
0.00890617
0.00944242
0.0102718
5.75914e-05
0.00116488
-0.000686977
0.00146798
-0.00036965
0.00214723
0.0028839
0.0016874
0.00343292
0.00362541
0.00373306
0.00493641
0.00586857
0.00592941
0.0069876
0.00831888
0.00856909
0.00871741
0.00919497
0.00992506
6.45298e-05
0.00116169
-0.000647992
0.00147597
-0.000301267
0.00211399
0.00287988
0.00167926
0.00345281
0.00362511
0.00370176
0.00493622
0.00583795
0.00590037
0.00689891
0.00820988
0.00845018
0.00852137
0.00893803
0.00958867
7.21394e-05
0.00115809
-0.000607005
0.00148206
-0.000230723
0.0020784
0.00287795
0.00167092
0.00346857
0.00362842
0.0036662
0.00493627
0.00580398
0.00586492
0.00681054
0.00808971
0.00832511
0.00832265
0.00867503
0.00925865
8.0473e-05
0.00115406
-0.000563974
0.00148608
-0.000158022
0.0020404
0.00287797
0.00166286
0.00347998
0.00363608
0.00362609
0.00493535
0.0057683
0.00582127
0.00672295
0.00796014
0.00819074
0.00812397
0.00840919
0.00893196
8.95848e-05
0.00114955
-0.000518866
0.00148786
-8.32092e-05
0.00200006
0.00287971
0.00165573
0.00348971
0.00364851
0.00358163
0.00493201
0.00573291
0.00576757
0.00663522
0.00782428
0.00804407
0.00792542
0.008146
0.00860825
9.95298e-05
0.00114452
-0.000471662
0.00148725
-6.35224e-06
0.00195747
0.00288279
0.00165021
0.0034896
0.00366603
0.00353343
0.00492427
0.00569971
0.00570314
0.00654528
0.00768561
0.00788417
0.00772568
0.00788994
0.00828943
0.000110364
0.00113894
-0.00042236
0.00148415
7.24457e-05
0.0019128
0.00288677
0.00164713
0.00348076
0.00368876
0.00348227
0.00490986
0.00567022
0.0056281
0.00645008
0.00754739
0.00771262
0.00752085
0.0076427
0.00798031
0.000122142
0.00113278
-0.000370976
0.00147845
0.00015302
0.00186633
0.00289102
0.0016474
0.00346297
0.00371641
0.00342865
0.00488633
0.00564532
0.00554366
0.00634605
0.00741199
0.00753261
0.00730619
0.00740239
0.00768683
0.000134919
0.00112602
-0.000317547
0.00147013
0.000235157
0.00181848
0.00289482
0.00165198
0.00343525
0.00374845
0.00337408
0.00485097
0.00562521
0.00545207
0.00622951
0.00727989
0.00734895
0.00707972
0.00716569
0.00741314
0.000148747
0.00111863
-0.000262136
0.00145917
0.000318579
0.00176975
0.00289732
0.0016618
0.00339769
0.00378382
0.00332334
0.00480148
0.00560925
0.00535672
0.00609707
0.00714914
0.00716777
0.00684298
0.00692677
0.00715869
0.000163675
0.00111061
-0.000204837
0.00144564
0.000402929
0.00172076
0.00289755
0.0016777
0.00335027
0.00382079
0.0032779
0.00473649
0.00559544
0.00526215
0.00594678
0.0070163
0.00699498
0.00659982
0.00667882
0.00691846
0.000179748
0.00110197
-0.000145771
0.00142966
0.000487778
0.001672
0.00289453
0.0017003
0.00329335
0.00385725
0.00324002
0.00465544
0.00558062
0.00517345
0.0057788
0.00687653
0.00683446
0.00635566
0.00641784
0.00668431
0.000197006
0.00109271
-8.50951e-05
0.00141142
0.000572625
0.00162489
0.00288725
0.00173004
0.00322761
0.00389075
0.00321196
0.00455846
0.00556098
0.00509601
0.0055952
0.0067238
0.00668734
0.00611708
0.00614411
0.0064464
0.000215479
0.00108288
-2.30047e-05
0.00139118
0.000656886
0.00158028
0.00287476
0.00176696
0.00315424
0.00391844
0.00319553
0.00444649
0.00553538
0.005033
0.00539988
0.00655228
0.00655195
0.00589152
0.00586137
0.00619605
0.000235192
0.00107253
4.02688e-05
0.00136927
0.000739928
0.00153899
0.00285622
0.00181082
0.00307496
0.00393736
0.00319149
0.00432184
0.00549269
0.00498434
0.00519877
0.00635735
0.00642404
0.00568576
0.00557575
0.00592881
0.000256158
0.00106172
0.000104455
0.0013461
0.000821052
0.00150194
0.00283094
0.00186102
0.00299187
0.00394457
0.0031997
0.00418854
0.00543054
0.00494881
0.00499922
0.00613685
0.00629734
0.00550457
0.00529479
0.0056453
0.000278379
0.00105055
0.000169246
0.00132213
0.000899501
0.00146998
0.00279844
0.00191643
0.00290743
0.00393768
0.00321925
0.0040515
0.00534531
0.00492303
0.00480933
0.00589177
0.00616383
0.00534947
0.00502616
0.00535025
0.000301842
0.00103915
0.000234296
0.00129788
0.000974516
0.00144384
0.00275855
0.00197554
0.00282426
0.00391502
0.00324827
0.00391575
0.00523491
0.00490171
0.00463641
0.00562625
0.0060146
0.00521814
0.00477711
0.00505096
0.000326522
0.00102764
0.000299234
0.00127389
0.00104534
0.0014241
0.00271144
0.00203663
0.0027449
0.00387561
0.00328408
0.00378617
0.00509934
0.00487815
0.00448573
0.00534697
0.00584194
0.00510546
0.0045535
0.00475542
0.000352377
0.00101618
0.000363655
0.00125074
0.00111125
0.00141109
0.00265766
0.00209751
0.00267167
0.00381947
0.00334827
0.00366692
0.00494022
0.00484524
0.00435974
0.00506289
0.00564121
0.00500343
0.00435874
0.00447075
0.00037935
0.00100497
0.000427145
0.00122899
0.00117162
0.00140482
0.00259805
0.00215597
0.00260654
0.00374648
0.00338199
0.00356056
0.0047612
0.0047963
0.00425748
0.00478433
0.00541153
0.00490197
0.00419361
0.00420274
0.000407364
0.000994176
0.00048928
0.00120915
0.00122592
0.00140504
0.00253383
0.00220973
0.00255075
0.00365806
0.00340859
0.00346911
0.00456797
0.00472575
0.00417489
0.0045214
0.00515617
0.00479065
0.0040563
0.00395603
0.00043633
0.000984021
0.00054964
0.0011917
0.00127381
0.00141122
0.00246645
0.00225647
0.00250468
0.00355704
0.00342403
0.00339261
0.00436715
0.00463029
0.00410581
0.00428201
0.00488225
0.0046605
0.00394164
0.00373419
0.000466139
0.000974711
0.000607824
0.001177
0.00131509
0.0014226
0.00239741
0.00229434
0.00246803
0.00344688
0.00342481
0.00332959
0.00416564
0.00450935
0.00404226
0.00407049
0.0045995
0.00450577
0.00384131
0.00353942
0.000496669
0.000966452
0.000663461
0.00116536
0.00134971
0.00143818
0.0023283
0.00232187
0.00243976
0.00333122
0.00340857
0.00327736
0.0039697
0.00436484
0.0039758
0.00388713
0.0043187
0.00432516
0.00374513
0.00337189
0.000527782
0.000959444
0.000716218
0.00115693
0.00137779
0.00145681
0.00226067
0.00233813
0.0024182
0.00321361
0.00337439
0.00323202
0.00378398
0.00420059
0.0038993
0.00372879
0.00404984
0.00412192
0.00364319
0.00322888
0.000559331
0.000953863
0.000765826
0.00115176
0.00139971
0.00147722
0.00219573
0.00234281
0.00240124
0.00309735
0.00332251
0.00318933
0.00361145
0.0040219
0.00380799
0.00359026
0.00380024
0.00390283
0.00352796
0.00310471
0.000591157
0.000949865
0.000812086
0.00114977
0.00141593
0.00149812
0.00213444
0.00233583
0.0023866
0.00298492
0.00325379
0.00314404
0.00345361
0.00383498
0.00369984
0.00346484
0.00357349
0.00367648
0.00339571
0.00299163
0.000623096
0.000947565
0.000854864
0.00115066
0.001427
0.00151827
0.00207748
0.00231855
0.00237189
0.0028779
0.00317048
0.00309315
0.00330986
0.00364579
0.00357515
0.00334571
0.00336987
0.00345137
0.00324668
0.0028816
0.000654982
0.00094704
0.000894064
0.00115405
0.0014336
0.00153655
0.00202509
0.00229188
0.0023549
0.0027772
0.00307584
0.00303384
0.00317797
0.00345929
0.0034361
0.00322717
0.00318715
0.00323439
0.00308434
0.0027681
0.000686648
0.000948321
0.000929649
0.00115959
0.00143648
0.00155202
0.00197729
0.00225706
0.00233372
0.0026829
0.00297309
0.00296462
0.00305527
0.00327916
0.00328618
0.00310534
0.00302143
0.00302993
0.00291397
0.0026474
0.000717928
0.000951399
0.00096168
0.00116679
0.00143628
0.0015639
0.00193372
0.00221561
0.00230698
0.00259426
0.00286524
0.00288523
0.0029389
0.00310751
0.00312937
0.00297816
0.00286817
0.00283988
0.00274114
0.00251868
0.000748653
0.000956203
0.000990289
0.00117512
0.00143359
0.0015717
0.00189376
0.00216903
0.00227392
0.00251022
0.00275493
0.00279637
0.0028261
0.00294505
0.00296959
0.00284526
0.00272312
0.00266402
0.00257062
0.00238344
0.00077866
0.000962571
0.00101566
0.00118401
0.0014289
0.00157515
0.00185653
0.00211867
0.00223424
0.00242954
0.00264423
0.00269941
0.00271461
0.00279147
0.00281017
0.00270755
0.00258295
0.00250078
0.00240573
0.00224442
0.0008078
0.000970356
0.001038
0.00119293
0.0014226
0.00157415
0.00182121
0.00206573
0.00218816
0.00235091
0.00253454
0.00259609
0.00260289
0.00264585
0.00265359
0.00256667
0.00244541
0.00234792
0.00224824
0.00210462
0.000835938
0.000979354
0.00105748
0.00120142
0.00141494
0.00156874
0.00178691
0.00201112
0.00213618
0.00227318
0.0024267
0.0024883
0.00249015
0.00250693
0.00250146
0.00242453
0.00230936
0.00220323
0.00209868
0.00196659
0.000862946
0.000989323
0.00107435
0.00120904
0.0014061
0.00155914
0.00175286
0.00195548
0.00207907
0.00219544
0.0023211
0.00237786
0.00237619
0.00237342
0.00235462
0.00228297
0.00217452
0.00206484
0.00195672
0.00183213
0.000888707
0.000999997
0.00108882
0.00121542
0.00139613
0.00154568
0.00171844
0.00189924
0.00201773
0.00211711
0.00221779
0.0022663
0.00226129
0.00224423
0.00221331
0.00214352
0.00204118
0.00193141
0.00182163
0.00170224
0.000913111
0.0010111
0.00110108
0.00122026
0.00138506
0.00152873
0.00168313
0.00184264
0.00195307
0.00203787
0.00211666
0.00215489
0.00214603
0.00211857
0.0020774
0.00200733
0.00190994
0.00180215
0.00169254
0.0015773
0.000936063
0.00102234
0.00111128
0.00122336
0.00137285
0.00150866
0.00164655
0.0017858
0.00188595
0.0019577
0.00201751
0.00204454
0.00203114
0.00199598
0.0019466
0.00187512
0.00178147
0.00167669
0.00156874
0.0014573
0.000957474
0.00103343
0.00111957
0.00122457
0.00135948
0.00148529
0.00160847
0.00172874
0.00181716
0.00187676
0.0019202
0.00193595
0.00191735
0.00187627
0.00182056
0.00174731
0.0016564
0.00155496
0.00144966
0.00134204
0.000977265
0.0010441
0.00112605
0.00122382
0.00134492
0.00145993
0.00156889
0.00167151
0.00174735
0.00179538
0.00182463
0.00182957
0.00180537
0.00175949
0.00169902
0.0016241
0.00153519
0.00143706
0.00133498
0.00123126
0.00099537
0.00105411
0.00113081
0.00122109
0.00132908
0.00143257
0.00152789
0.00161414
0.00167711
0.00171397
0.00173082
0.00172571
0.00169576
0.00164581
0.00158179
0.00150555
0.00141819
0.00132316
0.00122453
0.00112477
0.00101173
0.00106323
0.00113393
0.00121639
0.00131193
0.00140351
0.00148565
0.00155671
0.00160691
0.00163298
0.00163886
0.00162462
0.00158903
0.00153548
0.00146882
0.00139165
0.00130561
0.00121342
0.00111826
0.00102242
0.0010263
0.00107129
0.00113545
0.00120981
0.00129338
0.001373
0.00144239
0.00149935
0.00153717
0.00155286
0.00154894
0.00152649
0.00148555
0.00142877
0.00136011
0.0012824
0.00119759
0.00110801
0.00101619
0.000924163
0.00103904
0.00107811
0.00113544
0.0012015
0.0012735
0.00134131
0.0013984
0.00144225
0.00146825
0.00147405
0.0014613
0.00143153
0.00138564
0.00132596
0.00125576
0.00117782
0.00109423
0.00100705
0.000918393
0.000829975
0.00104995
0.00108358
0.00113393
0.0011916
0.00125255
0.00130873
0.00135397
0.00138563
0.00140052
0.00139698
0.00137622
0.00133994
0.00128957
0.00122728
0.00115589
0.00107796
0.00099559
0.00091066
0.000824938
0.000739896
0.00105905
0.00108765
0.00113101
0.00118027
0.00123065
0.00127555
0.00130946
0.00132978
0.00133432
0.00132205
0.00129401
0.00125195
0.00119757
0.00113298
0.00106064
0.00098291
0.000901765
0.000818928
0.000735922
0.000654
0.00106635
0.00109028
0.00112676
0.0011677
0.00120797
0.00124207
0.00126522
0.00127502
0.00126998
0.00124964
0.00121501
0.00116781
0.00110989
0.00104328
0.000970202
0.000892782
0.000812849
0.000731964
0.000651454
0.00057239
0.00107194
0.00109152
0.00112129
0.00115414
0.00118477
0.00120863
0.00122163
0.0012217
0.00120787
0.00118012
0.00113953
0.00108779
0.00102675
0.000958401
0.000884753
0.00080772
0.000728965
0.000649893
0.000571666
0.000495201
0.0010759
0.00109143
0.00111476
0.00113981
0.00116131
0.00117556
0.00117909
0.00117021
0.00114837
0.00111389
0.00106794
0.00101218
0.00094843
0.000878588
0.000804503
0.000727896
0.000650265
0.000572866
0.000496716
0.000422602
0.00107836
0.00109015
0.00110737
0.00112471
0.0011379
0.00114323
0.00113802
0.00112097
0.00109187
0.00105134
0.0010006
0.000941292
0.000875196
0.00080409
0.000729678
0.000653514
0.000576941
0.000501072
0.000426798
0.000354794
0.00107951
0.00108784
0.00109938
0.00110962
0.00111494
0.00111207
0.00109887
0.00107442
0.00103882
0.000992868
0.000937891
0.000875488
0.000807364
0.000735193
0.000660543
0.000584819
0.000509224
0.000434742
0.000362149
0.00029202
0.00107954
0.00108473
0.00109105
0.00109479
0.00109286
0.00108253
0.00106212
0.00103105
0.000989662
0.000938938
0.000880243
0.000815152
0.000745288
0.000672223
0.000597403
0.000522101
0.000447395
0.000374153
0.000303049
0.000234575
0.00107871
0.00108111
0.00108273
0.0010806
0.00107213
0.00105511
0.00102829
0.000991374
0.000944919
0.000890031
0.000828116
0.000760714
0.000689373
0.000615565
0.000540624
0.00046571
0.00039179
0.000319636
0.000249834
0.000182802
0.00107733
0.00107727
0.00107477
0.00106748
0.00105324
0.00103037
0.000997961
0.00095598
0.000905157
0.000846697
0.000782034
0.000712673
0.000640091
0.000565669
0.000490643
0.000416069
0.000342822
0.00027159
0.000202895
0.000137093
0.00107571
0.00107358
0.00106761
0.00105589
0.00103674
0.00100889
0.000971753
0.000925497
0.000870997
0.000809543
0.000742586
0.000671598
0.000597991
0.00052307
0.000447983
0.000373701
0.00030101
0.000230528
0.000162718
9.79032e-05
0.00107421
0.00107042
0.00106159
0.00104643
0.00102332
0.00099144
0.000950482
0.000900778
0.000843312
0.00077944
0.000710631
0.000638329
0.000563893
0.000488564
0.000413425
0.000339377
0.000267141
0.000197259
0.000130124
6.60002e-05
0.00107316
0.00106816
0.00105767
0.00103981
0.00101385
0.000979047
0.000935314
0.000883119
0.000823528
0.000757944
0.000687841
0.000614635
0.000539641
0.000464048
0.000388887
0.000315015
0.00024311
0.000173691
0.00010713
4.3664e-05
0.00107339
0.00106775
0.00105583
0.00103617
0.00100811
0.00097095
0.000924916
0.000870611
0.000809187
0.000742089
0.000670796
0.000596703
0.000521096
0.000445124
0.000369773
0.00029585
0.00022399
0.000154675
8.82562e-05
2.49655e-05
0.0233033
0.0142473
0.00480206
-0.0016673
-0.00381449
-0.00368336
-0.00326338
-0.00287408
-0.00279665
-0.00308061
-0.00321972
-0.00322825
-0.00335672
-0.00333561
-0.00310932
-0.00305062
-0.00313101
-0.003028
-0.00280237
-0.0027122
-0.00274998
-0.0027681
-0.00274809
-0.0027517
-0.00279329
-0.00284978
-0.00291153
-0.00298292
-0.00306581
-0.00315774
-0.00325667
-0.00336188
-0.00347285
-0.00358901
-0.00370995
-0.0038353
-0.00396485
-0.00409847
-0.00423599
-0.00437732
-0.00452235
-0.00467096
-0.00482311
-0.00497882
-0.00513809
-0.00530092
-0.00546728
-0.00563716
-0.00581054
-0.00598745
-0.00616791
-0.00635195
-0.00653961
-0.00673092
-0.00692594
-0.00712471
-0.00732729
-0.00753373
-0.00774407
-0.00795837
-0.00817669
-0.00839909
-0.00862563
-0.00885637
-0.00909138
-0.00933074
-0.00957452
-0.00982278
-0.0100756
-0.0103331
-0.0105953
-0.0108623
-0.0111342
-0.0114111
-0.011693
-0.0119801
-0.0122725
-0.0125702
-0.0128734
-0.013182
-0.0134963
-0.0138164
-0.0141423
-0.0144742
-0.014812
-0.0151562
-0.0155061
-0.0158635
-0.0162255
-0.016597
-0.0169705
-0.0173572
-0.0177428
-0.0181421
-0.0185444
-0.0189467
-0.01937
-0.0197714
-0.0202101
-0.0206479
0.022184
0.0140854
0.00489541
-0.00153011
-0.00373379
-0.00364311
-0.0032388
-0.00285709
-0.00278417
-0.00307207
-0.00321362
-0.00322359
-0.00335398
-0.00333426
-0.00310803
-0.00304945
-0.00313054
-0.00302797
-0.00280223
-0.00271205
-0.00274996
-0.00276821
-0.00274813
-0.00275172
-0.00279331
-0.0028498
-0.00291154
-0.00298293
-0.00306581
-0.00315775
-0.00325667
-0.00336189
-0.00347285
-0.00358901
-0.00370995
-0.0038353
-0.00396485
-0.00409847
-0.00423599
-0.00437732
-0.00452235
-0.00467096
-0.00482311
-0.00497882
-0.00513809
-0.00530092
-0.00546728
-0.00563716
-0.00581054
-0.00598745
-0.00616791
-0.00635196
-0.00653961
-0.00673092
-0.00692594
-0.00712471
-0.00732729
-0.00753373
-0.00774407
-0.00795837
-0.00817669
-0.00839909
-0.00862563
-0.00885637
-0.00909138
-0.00933074
-0.00957452
-0.00982278
-0.0100756
-0.0103331
-0.0105953
-0.0108623
-0.0111342
-0.0114111
-0.011693
-0.0119801
-0.0122725
-0.0125702
-0.0128734
-0.013182
-0.0134963
-0.0138164
-0.0141423
-0.0144742
-0.014812
-0.0151562
-0.0155061
-0.0158635
-0.0162255
-0.016597
-0.0169705
-0.0173572
-0.0177428
-0.0181421
-0.0185444
-0.0189467
-0.01937
-0.0197714
-0.02021
-0.020648
0.0212002
0.0139277
0.00509389
-0.00125867
-0.00359053
-0.00359086
-0.00321163
-0.00283537
-0.00276627
-0.00305773
-0.00320171
-0.00321384
-0.00334733
-0.00333032
-0.00310529
-0.00304742
-0.00312923
-0.00302706
-0.00280167
-0.00271183
-0.00274994
-0.00276815
-0.00274803
-0.00275168
-0.00279332
-0.00284982
-0.00291154
-0.00298293
-0.00306582
-0.00315775
-0.00325667
-0.00336189
-0.00347285
-0.00358901
-0.00370995
-0.0038353
-0.00396485
-0.00409847
-0.00423599
-0.00437732
-0.00452235
-0.00467096
-0.00482311
-0.00497882
-0.00513809
-0.00530092
-0.00546728
-0.00563716
-0.00581054
-0.00598745
-0.00616791
-0.00635195
-0.00653961
-0.00673092
-0.00692594
-0.00712471
-0.00732729
-0.00753373
-0.00774407
-0.00795837
-0.00817669
-0.00839909
-0.00862563
-0.00885637
-0.00909138
-0.00933074
-0.00957452
-0.00982278
-0.0100756
-0.0103331
-0.0105953
-0.0108623
-0.0111342
-0.0114111
-0.011693
-0.0119801
-0.0122725
-0.0125702
-0.0128734
-0.013182
-0.0134963
-0.0138164
-0.0141423
-0.0144742
-0.014812
-0.0151562
-0.0155061
-0.0158635
-0.0162255
-0.016597
-0.0169705
-0.0173572
-0.0177428
-0.0181421
-0.0185444
-0.0189467
-0.01937
-0.0197714
-0.02021
-0.0206481
0.0202761
0.0137639
0.00535363
-0.000906226
-0.00339343
-0.00351958
-0.00317268
-0.00280208
-0.0027381
-0.00303323
-0.00317985
-0.00319478
-0.00333188
-0.00331964
-0.00309887
-0.00304283
-0.00312486
-0.00302348
-0.0027998
-0.00271124
-0.0027496
-0.00276769
-0.00274769
-0.00275158
-0.00279332
-0.00284981
-0.00291153
-0.00298292
-0.00306582
-0.00315775
-0.00325667
-0.00336189
-0.00347285
-0.00358901
-0.00370995
-0.0038353
-0.00396485
-0.00409847
-0.00423599
-0.00437732
-0.00452235
-0.00467096
-0.00482311
-0.00497882
-0.00513809
-0.00530092
-0.00546728
-0.00563716
-0.00581054
-0.00598745
-0.00616791
-0.00635195
-0.00653961
-0.00673092
-0.00692594
-0.00712471
-0.00732729
-0.00753373
-0.00774407
-0.00795837
-0.00817669
-0.00839909
-0.00862563
-0.00885637
-0.00909138
-0.00933074
-0.00957452
-0.00982278
-0.0100756
-0.0103331
-0.0105953
-0.0108623
-0.0111342
-0.0114111
-0.011693
-0.0119801
-0.0122725
-0.0125702
-0.0128734
-0.013182
-0.0134963
-0.0138164
-0.0141423
-0.0144742
-0.014812
-0.0151562
-0.0155061
-0.0158635
-0.0162255
-0.016597
-0.0169705
-0.0173572
-0.0177428
-0.0181421
-0.0185444
-0.0189467
-0.01937
-0.0197714
-0.02021
-0.0206482
0.0193743
0.0135751
0.00561981
-0.000533038
-0.00317623
-0.00344035
-0.00312838
-0.00276118
-0.00270078
-0.00299812
-0.00314724
-0.00316547
-0.00330631
-0.00330084
-0.00308776
-0.00303486
-0.00311646
-0.00301627
-0.00279599
-0.00270986
-0.00274858
-0.00276653
-0.00274688
-0.00275126
-0.00279322
-0.00284976
-0.00291148
-0.00298291
-0.00306582
-0.00315776
-0.00325667
-0.00336189
-0.00347285
-0.00358901
-0.00370994
-0.0038353
-0.00396485
-0.00409846
-0.00423599
-0.00437732
-0.00452235
-0.00467096
-0.00482311
-0.00497882
-0.00513809
-0.00530092
-0.00546728
-0.00563716
-0.00581054
-0.00598745
-0.00616791
-0.00635195
-0.00653961
-0.00673092
-0.00692594
-0.00712471
-0.00732729
-0.00753373
-0.00774407
-0.00795837
-0.00817669
-0.00839909
-0.00862563
-0.00885637
-0.00909138
-0.00933074
-0.00957452
-0.00982278
-0.0100756
-0.0103331
-0.0105953
-0.0108623
-0.0111342
-0.0114111
-0.011693
-0.0119801
-0.0122725
-0.0125702
-0.0128734
-0.013182
-0.0134963
-0.0138164
-0.0141423
-0.0144742
-0.014812
-0.0151562
-0.0155061
-0.0158635
-0.0162255
-0.016597
-0.0169705
-0.0173572
-0.0177428
-0.0181421
-0.0185444
-0.0189467
-0.01937
-0.0197714
-0.02021
-0.0206484
0.018496
0.0133432
0.00586921
-0.000154482
-0.00294584
-0.00335639
-0.00308375
-0.00271813
-0.00265866
-0.00295635
-0.00310757
-0.00312917
-0.00327339
-0.00327574
-0.00307269
-0.00302378
-0.00310432
-0.0030056
-0.0027902
-0.0027075
-0.00274673
-0.00276455
-0.00274549
-0.00275062
-0.00279294
-0.00284957
-0.00291136
-0.00298286
-0.00306581
-0.00315775
-0.00325667
-0.00336188
-0.00347284
-0.003589
-0.00370994
-0.0038353
-0.00396485
-0.00409846
-0.00423598
-0.00437731
-0.00452234
-0.00467095
-0.00482311
-0.00497882
-0.00513809
-0.00530092
-0.00546728
-0.00563716
-0.00581054
-0.00598744
-0.00616791
-0.00635195
-0.00653961
-0.00673092
-0.00692594
-0.00712471
-0.00732729
-0.00753373
-0.00774407
-0.00795837
-0.00817669
-0.00839909
-0.00862563
-0.00885637
-0.00909138
-0.00933074
-0.00957451
-0.00982278
-0.0100756
-0.0103331
-0.0105953
-0.0108623
-0.0111342
-0.0114111
-0.011693
-0.0119801
-0.0122725
-0.0125702
-0.0128734
-0.013182
-0.0134963
-0.0138164
-0.0141423
-0.0144742
-0.014812
-0.0151562
-0.0155061
-0.0158635
-0.0162255
-0.016597
-0.0169705
-0.0173572
-0.0177428
-0.0181421
-0.0185444
-0.0189467
-0.01937
-0.0197714
-0.02021
-0.0206485
0.0176401
0.0130657
0.00610156
0.000230651
-0.00270147
-0.00326747
-0.00303998
-0.0026746
-0.00261368
-0.00291065
-0.00306384
-0.00308897
-0.00323655
-0.00324723
-0.00305528
-0.00301071
-0.00308976
-0.00299263
-0.00278293
-0.00270431
-0.00274417
-0.0027619
-0.0027436
-0.00274968
-0.00279246
-0.00284924
-0.00291115
-0.00298276
-0.00306578
-0.00315774
-0.00325666
-0.00336187
-0.00347284
-0.003589
-0.00370993
-0.00383529
-0.00396484
-0.00409845
-0.00423598
-0.00437731
-0.00452234
-0.00467095
-0.0048231
-0.00497881
-0.00513809
-0.00530091
-0.00546728
-0.00563715
-0.00581053
-0.00598744
-0.00616791
-0.00635195
-0.00653961
-0.00673092
-0.00692594
-0.00712471
-0.00732729
-0.00753373
-0.00774407
-0.00795836
-0.00817669
-0.00839908
-0.00862563
-0.00885637
-0.00909138
-0.00933074
-0.00957451
-0.00982278
-0.0100756
-0.0103331
-0.0105953
-0.0108623
-0.0111342
-0.0114111
-0.011693
-0.0119801
-0.0122725
-0.0125702
-0.0128734
-0.013182
-0.0134963
-0.0138164
-0.0141423
-0.0144742
-0.014812
-0.0151562
-0.0155061
-0.0158635
-0.0162255
-0.016597
-0.0169705
-0.0173572
-0.0177428
-0.0181421
-0.0185444
-0.0189467
-0.01937
-0.0197714
-0.02021
-0.0206487
0.0168127
0.012753
0.00631712
0.000619714
-0.00244398
-0.00317276
-0.00299681
-0.00263095
-0.00256658
-0.00286218
-0.00301737
-0.00304635
-0.0031976
-0.00321688
-0.00303649
-0.00299647
-0.00307386
-0.00297831
-0.00277469
-0.00270053
-0.00274115
-0.0027588
-0.00274136
-0.00274849
-0.00279182
-0.00284879
-0.00291085
-0.00298261
-0.00306571
-0.00315771
-0.00325664
-0.00336186
-0.00347283
-0.00358898
-0.00370992
-0.00383528
-0.00396483
-0.00409844
-0.00423597
-0.0043773
-0.00452233
-0.00467094
-0.0048231
-0.00497881
-0.00513808
-0.00530091
-0.00546727
-0.00563715
-0.00581053
-0.00598744
-0.00616791
-0.00635195
-0.0065396
-0.00673091
-0.00692593
-0.00712471
-0.00732729
-0.00753372
-0.00774406
-0.00795836
-0.00817669
-0.00839908
-0.00862562
-0.00885637
-0.00909138
-0.00933074
-0.00957451
-0.00982278
-0.0100756
-0.0103331
-0.0105953
-0.0108623
-0.0111342
-0.0114111
-0.011693
-0.0119801
-0.0122725
-0.0125702
-0.0128734
-0.013182
-0.0134963
-0.0138164
-0.0141423
-0.0144742
-0.014812
-0.0151562
-0.0155061
-0.0158635
-0.0162255
-0.016597
-0.0169705
-0.0173573
-0.0177428
-0.0181421
-0.0185444
-0.0189467
-0.01937
-0.0197714
-0.02021
-0.0206489
0.0160235
0.0124108
0.00650776
0.00100766
-0.002173
-0.00307028
-0.0029538
-0.00258801
-0.00251811
-0.00281136
-0.00296858
-0.00300184
-0.00315711
-0.0031852
-0.00301664
-0.00298143
-0.00305715
-0.00296311
-0.00276576
-0.00269632
-0.00273782
-0.00275542
-0.00273887
-0.00274712
-0.00279105
-0.00284825
-0.00291049
-0.00298242
-0.00306562
-0.00315765
-0.0032566
-0.00336183
-0.0034728
-0.00358896
-0.0037099
-0.00383526
-0.00396481
-0.00409843
-0.00423595
-0.00437729
-0.00452232
-0.00467093
-0.00482309
-0.0049788
-0.00513808
-0.0053009
-0.00546727
-0.00563715
-0.00581053
-0.00598744
-0.0061679
-0.00635195
-0.0065396
-0.00673091
-0.00692593
-0.00712471
-0.00732729
-0.00753372
-0.00774406
-0.00795836
-0.00817669
-0.00839908
-0.00862562
-0.00885637
-0.00909138
-0.00933074
-0.00957451
-0.00982278
-0.0100756
-0.0103331
-0.0105953
-0.0108623
-0.0111342
-0.0114111
-0.011693
-0.0119801
-0.0122725
-0.0125702
-0.0128734
-0.013182
-0.0134963
-0.0138164
-0.0141423
-0.0144742
-0.014812
-0.0151562
-0.0155061
-0.0158635
-0.0162255
-0.016597
-0.0169705
-0.0173573
-0.0177428
-0.0181421
-0.0185444
-0.0189468
-0.01937
-0.0197714
-0.0202099
-0.020649
0.0152784
0.012042
0.00666677
0.00139193
-0.0018875
-0.00295847
-0.00291097
-0.00254668
-0.00246885
-0.00275827
-0.00291746
-0.00295546
-0.00311512
-0.00315223
-0.00299584
-0.00296574
-0.00303977
-0.00294715
-0.00275618
-0.00269173
-0.00273424
-0.00275181
-0.00273617
-0.00274561
-0.00279018
-0.00284763
-0.00291007
-0.00298218
-0.00306549
-0.00315758
-0.00325655
-0.00336178
-0.00347277
-0.00358893
-0.00370987
-0.00383523
-0.00396479
-0.00409841
-0.00423594
-0.00437727
-0.00452231
-0.00467092
-0.00482308
-0.00497879
-0.00513807
-0.0053009
-0.00546726
-0.00563714
-0.00581052
-0.00598743
-0.0061679
-0.00635194
-0.0065396
-0.00673091
-0.00692593
-0.00712471
-0.00732729
-0.00753372
-0.00774406
-0.00795836
-0.00817668
-0.00839908
-0.00862562
-0.00885637
-0.00909138
-0.00933074
-0.00957451
-0.00982278
-0.0100756
-0.0103331
-0.0105953
-0.0108623
-0.0111342
-0.0114111
-0.011693
-0.0119801
-0.0122725
-0.0125702
-0.0128734
-0.013182
-0.0134963
-0.0138164
-0.0141423
-0.0144742
-0.014812
-0.0151562
-0.0155061