/*--------------------------------*- C++ -*----------------------------------*\
| =========                 |                                                 |
| \\      /  F ield         | OpenFOAM: The Open Source CFD Toolbox           |
|  \\    /   O peration     | Version:  2106                                  |
|   \\  /    A nd           | Website:  www.openfoam.com                      |
|    \\/     M anipulation  |                                                 |
\*---------------------------------------------------------------------------*/
FoamFile
{
    version     2.0;
    format      ascii;
    arch        "LSB;label=32;scalar=64";
    class       volScalarField;
    location    "0.645";
    object      p;
}
// * * * * * * * * * * * * * * * * * * * * * * * * * * * * * * * * * * * * * //

dimensions      [0 2 -2 0 0 0 0];

internalField   nonuniform List<scalar> 
9600
(
-8.5196e-11
0.00201878
0.0030208
0.00289238
0.000614719
0.00338194
0.00396968
0.00409188
0.00408624
0.00424405
0.00430825
0.00454366
0.00459686
0.00474081
0.00516414
0.00678869
0.00568889
0.00677349
0.00856727
0.0117281
5.65729e-06
0.00201944
0.00301401
0.00290581
0.000621646
0.00338465
0.00396581
0.00408872
0.00408484
0.00424241
0.0043142
0.00453602
0.00460214
0.00473001
0.005181
0.00671183
0.00570708
0.00673631
0.0085908
0.0113762
1.20533e-05
0.00202072
0.00300677
0.00291305
0.000629396
0.003385
0.00396222
0.00408439
0.0040847
0.00424168
0.00431963
0.0045231
0.00460773
0.00471673
0.00519693
0.00663836
0.00573076
0.00669159
0.00859232
0.0109677
1.96441e-05
0.0020266
0.0029985
0.00292042
0.000638837
0.00338514
0.00395861
0.00408062
0.00408524
0.00424137
0.00432277
0.00450666
0.0046129
0.00470287
0.0052148
0.00656051
0.00575208
0.00664867
0.00856371
0.0105906
3.01437e-05
0.00203671
0.00298745
0.00292624
0.000652429
0.00338605
0.00395355
0.00407676
0.00408505
0.00424046
0.00432369
0.00448769
0.0046189
0.00468821
0.00523438
0.00647866
0.00577484
0.0066019
0.00850777
0.0102507
4.4089e-05
0.00204916
0.00297282
0.00293075
0.000671543
0.00338678
0.00394614
0.00407199
0.00408393
0.00423841
0.00432274
0.00446746
0.00462596
0.00467269
0.00525476
0.00639663
0.00579709
0.00654845
0.00843079
0.00994128
6.13197e-05
0.00206258
0.00295458
0.00293422
0.000696353
0.00338686
0.00393647
0.00406608
0.00408203
0.00423504
0.00432072
0.0044465
0.00463379
0.00465624
0.00527495
0.00631607
0.00581456
0.00649255
0.00833479
0.00965219
8.13114e-05
0.00207612
0.00293332
0.00293696
0.000726407
0.00338645
0.00392512
0.00405916
0.00407971
0.0042304
0.0043184
0.00442473
0.00464221
0.0046387
0.00529426
0.00623738
0.00582496
0.00643774
0.00821727
0.00937678
0.000103434
0.00208937
0.00290995
0.00293927
0.000760951
0.0033858
0.00391276
0.0040514
0.00407733
0.00422457
0.0043163
0.00440192
0.00465096
0.00462024
0.00531201
0.006161
0.00582656
0.00638476
0.00807698
0.0091113
0.000127167
0.00210229
0.00288539
0.00294133
0.000799109
0.003385
0.00390001
0.00404281
0.00407514
0.00421753
0.00431472
0.00437794
0.00465976
0.00460136
0.00532711
0.00608793
0.0058174
0.00633337
0.00791564
0.00885164
0.000152186
0.00211501
0.00286035
0.00294318
0.000840046
0.00338414
0.00388735
0.00403328
0.00407336
0.0042092
0.00431382
0.00435276
0.00466832
0.00458257
0.00533832
0.00601934
0.00579578
0.00628304
0.00773637
0.00859256
0.000178347
0.00212766
0.00283533
0.00294476
0.000883074
0.00338329
0.00387517
0.00402264
0.00407221
0.00419946
0.00431362
0.00432644
0.00467628
0.00456453
0.00534446
0.00595604
0.0057605
0.00623258
0.00754318
0.00832932
0.000205619
0.00214029
0.00281066
0.002946
0.000927703
0.00338245
0.00386378
0.0040107
0.00407183
0.00418822
0.00431403
0.00429917
0.00468313
0.00454809
0.00534432
0.00589846
0.0057112
0.00617959
0.00734096
0.00805902
0.00023403
0.00215288
0.00278652
0.00294681
0.000973623
0.00338158
0.00385345
0.00399728
0.00407236
0.00417542
0.00431493
0.00427128
0.00468818
0.00453414
0.00533675
0.00584664
0.00564846
0.00612051
0.00713515
0.00778095
0.000263641
0.00216536
0.00276305
0.00294717
0.00102065
0.00338055
0.00384443
0.00398219
0.00407384
0.00416105
0.0043161
0.00424322
0.00469065
0.00452347
0.00532092
0.00579997
0.00557387
0.00605127
0.00693076
0.00749608
0.000294525
0.00217758
0.00274033
0.00294707
0.00106868
0.00337918
0.00383695
0.00396529
0.00407625
0.00414517
0.00431718
0.00421557
0.00468964
0.0045167
0.00529629
0.00575699
0.00548989
0.00596817
0.00673118
0.0072067
0.00032676
0.00218941
0.00271846
0.00294652
0.00111763
0.00337723
0.00383122
0.00394648
0.00407953
0.00412796
0.00431772
0.00418904
0.00468433
0.00451407
0.00526279
0.00571547
0.00539937
0.00586864
0.00653774
0.00691615
0.000360422
0.00220068
0.0026975
0.00294556
0.00116744
0.00337447
0.00382744
0.00392566
0.00408354
0.00410967
0.00431716
0.00416436
0.00467403
0.00451538
0.00522105
0.00567267
0.005305
0.00575158
0.00635029
0.0066285
0.000395585
0.00221123
0.00267753
0.00294422
0.00121802
0.00337067
0.00382577
0.00390281
0.00408808
0.0040907
0.00431484
0.00414212
0.00465826
0.00452011
0.00517217
0.00562563
0.00520876
0.00561731
0.00616743
0.0063481
0.000432317
0.00222094
0.00265862
0.00294256
0.00126931
0.00336565
0.00382635
0.00387796
0.00409287
0.00407151
0.0043101
0.00412279
0.00463682
0.00452729
0.00511755
0.00557178
0.00511203
0.00546741
0.0059865
0.00607896
0.000470684
0.00222967
0.00264083
0.00294062
0.00132122
0.00335926
0.00382926
0.00385123
0.00409756
0.00405266
0.00430224
0.00410662
0.00460981
0.00453564
0.00505861
0.00550904
0.00501567
0.00530452
0.00580418
0.00582402
0.000510741
0.00223734
0.00262419
0.00293849
0.00137362
0.00335138
0.00383458
0.0038228
0.00410171
0.00403467
0.00429083
0.0040936
0.00457746
0.00454395
0.00499658
0.00543561
0.00491994
0.0051322
0.00561745
0.0055844
0.000552535
0.00224386
0.00260871
0.00293627
0.00142641
0.00334192
0.00384234
0.00379295
0.00410484
0.00401803
0.00427558
0.0040836
0.00454003
0.0045511
0.00493264
0.0053501
0.00482426
0.00495453
0.00542464
0.00535891
0.000596108
0.0022492
0.00259435
0.00293408
0.00147946
0.0033308
0.00385256
0.00376197
0.00410646
0.00400321
0.00425619
0.00407637
0.00449812
0.00455492
0.00486785
0.00525177
0.00472715
0.00477564
0.00522607
0.00514471
0.000641473
0.00225334
0.00258106
0.00293208
0.00153268
0.00331791
0.00386521
0.00373025
0.00410613
0.00399063
0.00423237
0.00407158
0.00445255
0.00455364
0.00480323
0.00514071
0.00462644
0.0045989
0.00502379
0.00493899
0.00068863
0.00225633
0.00256874
0.00293042
0.00158595
0.00330317
0.00388031
0.00369809
0.00410338
0.00398071
0.00420388
0.00406872
0.0044041
0.00454506
0.00473973
0.00501836
0.00451973
0.00442613
0.00482052
0.0047405
0.00073757
0.00225828
0.00255722
0.00292926
0.00163924
0.00328649
0.00389786
0.00366587
0.00409759
0.00397395
0.00417067
0.00406702
0.00435364
0.00452662
0.00467736
0.00488781
0.00440508
0.00425702
0.00461828
0.00454999
0.000788233
0.00225936
0.00254629
0.00292871
0.00169262
0.00326771
0.00391779
0.00363414
0.0040881
0.00397069
0.00413279
0.00406546
0.00430235
0.00449606
0.00461498
0.00475303
0.00428195
0.00409048
0.00441758
0.00436822
0.000840532
0.0022598
0.00253573
0.00292884
0.00174621
0.00324667
0.00394012
0.00360354
0.00407412
0.00397135
0.00409032
0.00406249
0.00425193
0.00445219
0.00455073
0.0046177
0.00415131
0.00392584
0.00421833
0.00419385
0.000894367
0.00225993
0.00252531
0.0029296
0.00180017
0.00322312
0.00396483
0.00357488
0.00405458
0.00397649
0.00404377
0.00405558
0.00420456
0.00439519
0.00448149
0.00448465
0.00401492
0.00376244
0.004021
0.00402427
0.000949583
0.00226014
0.00251483
0.00293085
0.00185488
0.00319674
0.00399166
0.00354924
0.00402818
0.00398646
0.00399396
0.00404202
0.0041622
0.00432634
0.00440381
0.0043555
0.00387561
0.00359906
0.00382624
0.00385755
0.00100597
0.00226085
0.00250418
0.00293229
0.00191071
0.00316729
0.00402024
0.00352787
0.00399358
0.00400101
0.00394221
0.00401855
0.00412546
0.0042495
0.0043149
0.00422974
0.0037373
0.00343497
0.00363348
0.00369288
0.00106329
0.00226251
0.00249334
0.00293356
0.00196818
0.0031345
0.00404978
0.00351262
0.00394971
0.00401886
0.00389126
0.00398077
0.00409256
0.00417058
0.0042139
0.00410456
0.00360367
0.00327181
0.00344086
0.00352915
0.00112131
0.00226551
0.00248241
0.00293407
0.00202784
0.00309836
0.00407919
0.00350566
0.00389588
0.00403736
0.00384489
0.00392669
0.00405984
0.00409508
0.00410275
0.00397611
0.00347614
0.0031135
0.00324711
0.00336362
0.00117979
0.0022702
0.00247166
0.00293302
0.00209012
0.00305933
0.00410693
0.00350904
0.00383216
0.00405269
0.00380664
0.00385721
0.0040215
0.00402622
0.00398508
0.0038412
0.0033534
0.00296424
0.00305366
0.00319264
0.0012385
0.00227687
0.00246164
0.00292951
0.00215517
0.00301808
0.00413085
0.00352467
0.0037596
0.00405999
0.00377887
0.00377421
0.00397182
0.0039644
0.0038659
0.0036986
0.00323251
0.00282656
0.00286485
0.00301404
0.00129727
0.00228558
0.00245313
0.00292266
0.00222263
0.0029757
0.00414853
0.00355361
0.0036806
0.00405421
0.00376216
0.0036834
0.00390717
0.00390788
0.00375037
0.00354877
0.00310982
0.00270083
0.00268622
0.00282906
0.001356
0.00229622
0.00244712
0.00291176
0.00229152
0.00293409
0.00415779
0.0035956
0.00359953
0.00403105
0.00375488
0.00359154
0.00382631
0.00385352
0.00364266
0.00339341
0.00298129
0.00258543
0.00252311
0.00264236
0.00141459
0.00230844
0.00244486
0.0028964
0.00236025
0.00289594
0.00415659
0.00364853
0.00352233
0.00398831
0.00375236
0.00350427
0.00373015
0.00379753
0.0035457
0.00323601
0.00284316
0.00247631
0.00237955
0.00246127
0.00147305
0.00232168
0.00244749
0.00287664
0.00242662
0.00286423
0.00414375
0.00370873
0.00345445
0.003926
0.00374831
0.0034243
0.00362121
0.00373632
0.0034609
0.00308175
0.00269336
0.00236701
0.00225692
0.00229526
0.00153147
0.00233531
0.00245569
0.00285339
0.00248797
0.00284181
0.00411954
0.00377149
0.00339942
0.00384737
0.00373783
0.00335246
0.00350251
0.00366667
0.00338813
0.00293623
0.0025329
0.00224996
0.00215112
0.002154
0.00158995
0.0023487
0.0024698
0.00282851
0.00254151
0.00284394
0.00408621
0.00383186
0.0033587
0.00375808
0.00371847
0.00328858
0.00337648
0.00358545
0.00332599
0.00280487
0.00236638
0.00211951
0.00205248
0.00204257
0.00164857
0.0023613
0.00248973
0.00280455
0.00258469
0.00284659
0.00404711
0.00388586
0.0033324
0.00366312
0.00368876
0.00323232
0.00324544
0.00348973
0.00327116
0.00269256
0.00220031
0.00197448
0.00194985
0.00195548
0.00170749
0.00237276
0.00251483
0.00278439
0.00261583
0.00287804
0.00400656
0.00393166
0.00331684
0.00356589
0.00364956
0.00318334
0.00311241
0.00337669
0.00321789
0.0026033
0.00204228
0.00181727
0.00183575
0.00187868
0.00176695
0.00238287
0.00254352
0.0027709
0.00263402
0.0028843
0.0039678
0.00396969
0.00330789
0.00346811
0.0036023
0.0031428
0.00298175
0.00324461
0.00315928
0.0025377
0.00190067
0.00165207
0.00170857
0.00179887
0.00182723
0.00239161
0.00257357
0.00276633
0.00264121
0.0028799
0.00393111
0.00400307
0.00330417
0.0033698
0.00354626
0.00311231
0.00285826
0.00309443
0.00308701
0.0024906
0.00178411
0.00148533
0.00156933
0.00171074
0.00188854
0.00239903
0.00260277
0.0027721
0.00264117
0.00286348
0.00389486
0.00403569
0.00330626
0.00326966
0.00348025
0.0030915
0.00274869
0.00293102
0.00299321
0.00245325
0.0016985
0.00132642
0.00141789
0.00161512
0.00195101
0.00240544
0.00262892
0.00278855
0.00263894
0.00283276
0.00385385
0.00406961
0.00331645
0.00316799
0.00340125
0.00307693
0.00266102
0.00276243
0.00287374
0.00241472
0.0016434
0.00118708
0.00125484
0.00151012
0.00201456
0.00241157
0.00265013
0.0028144
0.0026398
0.00278822
0.00380064
0.00410392
0.00334034
0.00306785
0.0033053
0.00306386
0.00259945
0.00259837
0.0027303
0.00236356
0.00161152
0.00107941
0.00108829
0.00138897
0.00207893
0.00241847
0.00266514
0.00284708
0.00264785
0.00273009
0.00372927
0.0041354
0.00338247
0.00297342
0.00319006
0.0030453
0.00256404
0.00245083
0.00257023
0.00229126
0.00159044
0.00100894
0.0009349
0.00124759
0.00214369
0.00242728
0.00267325
0.00288305
0.00266653
0.00266235
0.00363579
0.00415757
0.00344402
0.00289286
0.00305739
0.00301084
0.00255002
0.00233089
0.00240376
0.00219639
0.00156682
0.000969343
0.000811802
0.00109378
0.00220824
0.0024391
0.00267448
0.00291802
0.00269798
0.00260463
0.00351905
0.00416037
0.00352267
0.00283711
0.00291357
0.0029518
0.00254926
0.00224402
0.00224245
0.00208342
0.00153318
0.000947834
0.000727593
0.000947902
0.00227179
0.00245503
0.00266953
0.0029479
0.00274194
0.00255565
0.0033808
0.00413286
0.00361232
0.00281441
0.00276619
0.0028649
0.00255051
0.00219015
0.00209776
0.00195777
0.00148758
0.000933469
0.000677664
0.000830001
0.0023335
0.00247574
0.00266033
0.00296892
0.00280505
0.00252207
0.00322648
0.00406782
0.00370094
0.00282927
0.00262807
0.00275035
0.00254035
0.00216515
0.0019812
0.0018274
0.00142883
0.000920287
0.00065064
0.000749507
0.00239249
0.0025014
0.00264953
0.00297801
0.00286653
0.00250895
0.00306634
0.00396225
0.00377252
0.00287876
0.00251744
0.00261676
0.00250591
0.00215779
0.00189857
0.0017047
0.0013577
0.000905048
0.000637562
0.000702967
0.00244801
0.00253192
0.00263976
0.00297402
0.00292613
0.00251903
0.00291325
0.00381759
0.00381317
0.00295544
0.00244394
0.00247755
0.00244554
0.00215263
0.00184637
0.00160099
0.00127984
0.00088517
0.000634104
0.000681694
0.00249956
0.00256634
0.00263384
0.00295749
0.00297683
0.00255288
0.00277919
0.00363922
0.00381143
0.00304681
0.00241005
0.00234559
0.00236486
0.00214147
0.00181701
0.00152131
0.0012034
0.000858746
0.000637233
0.000679246
0.00254687
0.00260296
0.00263369
0.00293084
0.00301301
0.0026038
0.00267202
0.00344082
0.00376037
0.00313421
0.00241707
0.0022329
0.0022674
0.00212064
0.0018054
0.00146672
0.00113566
0.000825851
0.000641749
0.000691386
0.00258987
0.00264025
0.00263994
0.00289829
0.00303125
0.00266302
0.0025959
0.00324073
0.00366267
0.0031969
0.00245816
0.0021535
0.00216233
0.00208369
0.00180586
0.0014392
0.00108334
0.000789897
0.000640976
0.000712044
0.00262861
0.00267676
0.0026526
0.00286357
0.00303083
0.00272085
0.0025514
0.00305267
0.0035252
0.00322469
0.00251499
0.00210906
0.00206519
0.00203039
0.00180756
0.0014376
0.00105338
0.00075761
0.000631147
0.00073084
0.00266352
0.002711
0.00267053
0.00283003
0.00301327
0.00276894
0.00253546
0.00288734
0.00336084
0.00321431
0.00257398
0.002094
0.00198409
0.00196963
0.00180331
0.00145462
0.00104969
0.000738022
0.000616108
0.000738179
0.00269484
0.00274197
0.00269178
0.00280013
0.00298166
0.00280278
0.00253796
0.00275153
0.00318594
0.00316427
0.00262479
0.00210372
0.00192041
0.00190718
0.00179321
0.00148243
0.00107178
0.000738324
0.0006057
0.00073396
0.00272263
0.00276902
0.00271421
0.00277156
0.00294021
0.00282055
0.00254917
0.00264426
0.0030162
0.00308063
0.00265445
0.00213288
0.00187842
0.00184399
0.00177674
0.00151684
0.00111733
0.000763234
0.000609691
0.000727724
0.00274714
0.00279146
0.00273602
0.00275188
0.00289371
0.00282205
0.00256302
0.00256242
0.00285931
0.00297655
0.00265812
0.00216803
0.00186219
0.00178687
0.00175031
0.00155347
0.00118464
0.000817732
0.000636551
0.000732316
0.00276841
0.00280901
0.00275511
0.00273722
0.00284583
0.00280878
0.00257463
0.00250172
0.00271725
0.00286167
0.00263967
0.00219828
0.00186524
0.00174667
0.00171684
0.00158482
0.00126972
0.000904668
0.000694551
0.000757922
0.00278624
0.00282182
0.00277027
0.00272607
0.00279896
0.00278338
0.00258002
0.00245741
0.00259207
0.00274023
0.00260241
0.00222148
0.00187893
0.00172579
0.00168833
0.00160636
0.00136456
0.00102435
0.00078992
0.000813076
0.00280045
0.0028301
0.00278098
0.002717
0.00275438
0.00274875
0.002577
0.00242432
0.00248497
0.00261693
0.0025466
0.00223594
0.00190013
0.00172039
0.00167385
0.00162424
0.00145901
0.0011721
0.00092779
0.000907487
0.00281094
0.00283393
0.00278689
0.00270877
0.00271249
0.00270752
0.00256497
0.00239781
0.00239488
0.00249706
0.00247414
0.00223693
0.00192735
0.00172824
0.00167419
0.00164958
0.0015499
0.00133907
0.00111153
0.00105252
0.00281768
0.00283333
0.00278779
0.00270052
0.00267349
0.00266169
0.00254393
0.00237441
0.0023197
0.00238409
0.00238925
0.00222023
0.00195475
0.00174935
0.0016874
0.0016883
0.00164439
0.00151639
0.00133765
0.00125939
0.00282074
0.00282859
0.00278356
0.00269147
0.00263755
0.0026131
0.00251408
0.00235107
0.00225742
0.00228009
0.00229667
0.00218478
0.00197405
0.00178084
0.00171257
0.00174021
0.00175173
0.00170454
0.00160091
0.00153235
0.00282016
0.00282007
0.00277429
0.00268089
0.0026047
0.00256359
0.00247626
0.00232486
0.00220573
0.00218724
0.00220087
0.00213272
0.00197943
0.00181646
0.00174877
0.00180271
0.00187675
0.00191111
0.00189708
0.00186976
0.00281605
0.00280829
0.00276015
0.00266799
0.00257498
0.00251485
0.00243211
0.00229361
0.00216125
0.00210745
0.00210778
0.00206891
0.00196924
0.00185123
0.00179646
0.00187344
0.00201607
0.00213935
0.00222126
0.00225777
0.00280871
0.00279413
0.00274186
0.002652
0.00254794
0.00246865
0.00238401
0.00225673
0.0021206
0.00204051
0.00202403
0.002002
0.00194779
0.00188439
0.00186049
0.00195952
0.0021656
0.00237982
0.00254985
0.00264524
0.00279841
0.00277821
0.00272068
0.00263268
0.00252268
0.00242644
0.00233486
0.00221538
0.0020814
0.00198433
0.00195309
0.00194248
0.00192623
0.00192159
0.00194866
0.00207512
0.00232537
0.00260626
0.0028318
0.00295395
0.00278568
0.00276109
0.00269798
0.00261054
0.00249808
0.00238877
0.00228774
0.00217239
0.00204397
0.00193758
0.00189438
0.00189526
0.0019155
0.001971
0.00206304
0.00222121
0.00248563
0.0027904
0.00303972
0.00317019
0.00277135
0.00274339
0.00267518
0.00258665
0.00247339
0.0023556
0.00224485
0.00213051
0.00201095
0.00190305
0.00184987
0.00185734
0.00190702
0.00201632
0.00218173
0.00238548
0.00265304
0.0029511
0.00319829
0.0033244
0.00275625
0.0027259
0.00265347
0.00256259
0.00244927
0.00232599
0.00220743
0.00209201
0.0019822
0.00188507
0.0018323
0.00184081
0.00189573
0.00201749
0.00222264
0.00247287
0.00276745
0.00308813
0.00336163
0.00350797
0.0027416
0.00270961
0.00263402
0.00254031
0.00242684
0.00230068
0.00217656
0.00205809
0.00195319
0.00186905
0.00183265
0.00187291
0.00197286
0.00211622
0.00231652
0.00254658
0.00278493
0.00303309
0.00325343
0.0033828
0.00272852
0.00269534
0.00261792
0.00252195
0.00240813
0.00228198
0.0021554
0.00203626
0.00193485
0.00185749
0.00181785
0.00183859
0.00193604
0.00210087
0.00233713
0.00262961
0.00293359
0.00322012
0.00345273
0.00357654
0.00271748
0.00268185
0.00260144
0.00250167
0.00238519
0.00225739
0.00212819
0.00200663
0.00190419
0.00183048
0.00180078
0.00183283
0.0019462
0.00212751
0.00236525
0.00265012
0.00294607
0.00321862
0.00343178
0.0035378
0.0144624
0.00940958
0.00198745
-0.00365039
-0.00517013
-0.0040967
-0.00268944
-0.00181796
-0.00133542
-0.000985841
-0.000778929
-0.000694585
-0.000583651
-0.000414555
-0.000301399
-0.00024228
-0.000135635
-2.05368e-05
4.00438e-05
0.00013396
0.000308271
0.000475612
0.000590585
0.000688121
0.000801468
0.000932826
0.00105128
0.00114722
0.00124689
0.00135977
0.00147061
0.00156681
0.00166026
0.00175578
0.00184024
0.00191346
0.00198538
0.00206149
0.0021426
0.00222477
0.00231339
0.00241024
0.00250605
0.00260446
0.00270577
0.00279484
0.00287918
0.00297163
0.00304993
0.00312068
0.00320383
0.00329979
0.00341722
0.00355382
0.0036842
0.00381484
0.00395472
0.00408946
0.00421075
0.00431555
0.00443591
0.00459598
0.00476339
0.00491008
0.00507418
0.00526882
0.00546229
0.00565366
0.00585859
0.00607594
0.00629212
0.0065161
0.00674867
0.0069854
0.00722828
0.00747484
0.00773031
0.00798711
0.00825367
0.00852278
0.00880058
0.0090833
0.00937025
0.00966129
0.0099564
0.0102611
0.0105706
0.01089
0.0112111
0.0115414
0.0118727
0.0122129
0.0125582
0.0129102
0.013275
0.0136389
0.0140261
0.0144101
0.0147902
0.0151989
0.013758
0.0092696
0.00208163
-0.00351114
-0.00508869
-0.00405751
-0.00266432
-0.00180004
-0.00132226
-0.000975331
-0.000770168
-0.00068739
-0.000577601
-0.000409133
-0.000296549
-0.000238113
-0.000131897
-1.70486e-05
4.30907e-05
0.000136572
0.000310716
0.000477951
0.000592724
0.000690044
0.000803209
0.000934456
0.00105283
0.00114865
0.00124822
0.00136103
0.00147182
0.00156796
0.00166135
0.00175683
0.00184126
0.00191444
0.00198632
0.00206239
0.00214347
0.0022256
0.00231418
0.002411
0.00250678
0.00260515
0.00270644
0.00279547
0.00287976
0.00297219
0.00305048
0.00312119
0.0032043
0.00330022
0.00341762
0.00355419
0.00368455
0.00381516
0.00395502
0.00408973
0.004211
0.00431578
0.00443611
0.00459616
0.00476356
0.00491024
0.00507431
0.00526894
0.00546241
0.00565376
0.00585868
0.00607602
0.00629219
0.00651616
0.00674872
0.00698545
0.00722833
0.00747488
0.00773035
0.00798714
0.00825369
0.00852281
0.0088006
0.00908332
0.00937026
0.0096613
0.00995641
0.0102611
0.0105706
0.01089
0.0112111
0.0115414
0.0118727
0.0122129
0.0125582
0.0129102
0.013275
0.0136389
0.0140261
0.0144101
0.0147902
0.0151989
0.0130716
0.00912749
0.00228321
-0.00323816
-0.0049411
-0.00400252
-0.00263835
-0.00178089
-0.00130643
-0.000962439
-0.000759692
-0.00067884
-0.000570523
-0.000403111
-0.00029145
-0.000233855
-0.000128125
-1.35897e-05
4.60722e-05
0.000139133
0.000313101
0.00048018
0.000594739
0.000691865
0.000804859
0.000935983
0.00105425
0.00114995
0.00124941
0.00136216
0.00147291
0.00156898
0.00166231
0.00175776
0.00184215
0.00191529
0.00198713
0.00206317
0.00214422
0.00222632
0.00231486
0.00241166
0.00250741
0.00260575
0.00270703
0.00279603
0.00288028
0.00297269
0.00305095
0.00312163
0.00320471
0.0033006
0.00341796
0.00355453
0.00368487
0.00381545
0.00395529
0.00408999
0.00421124
0.00431599
0.00443628
0.00459631
0.00476372
0.00491038
0.00507442
0.00526905
0.00546251
0.00565384
0.00585875
0.00607609
0.00629225
0.00651622
0.00674877
0.00698549
0.00722837
0.00747491
0.00773038
0.00798716
0.00825372
0.00852283
0.00880062
0.00908334
0.00937028
0.00966131
0.00995642
0.0102611
0.0105706
0.01089
0.0112111
0.0115414
0.0118727
0.0122129
0.0125582
0.0129102
0.013275
0.0136389
0.0140261
0.0144101
0.0147902
0.015199
0.0124297
0.00899477
0.00254336
-0.00288665
-0.0047351
-0.00392419
-0.00260219
-0.00175333
-0.00128297
-0.000944164
-0.000745608
-0.000667141
-0.000560608
-0.000394879
-0.000284528
-0.000227931
-0.000122985
-9.01838e-06
5.01443e-05
0.000142688
0.000316157
0.000482834
0.000597176
0.000694164
0.000806933
0.000937809
0.00105588
0.00115143
0.00125077
0.00136342
0.00147408
0.00157007
0.00166334
0.00175874
0.00184307
0.00191614
0.00198795
0.00206396
0.00214499
0.00222706
0.00231556
0.00241233
0.00250806
0.00260638
0.00270766
0.00279664
0.00288083
0.00297321
0.00305145
0.00312209
0.00320515
0.00330101
0.00341833
0.00355488
0.00368521
0.00381578
0.00395561
0.00409028
0.0042115
0.00431621
0.00443647
0.0045965
0.00476391
0.00491053
0.00507454
0.00526917
0.00546262
0.00565394
0.00585884
0.00607617
0.00629233
0.00651628
0.00674883
0.00698554
0.00722841
0.00747495
0.00773041
0.0079872
0.00825374
0.00852285
0.00880064
0.00908336
0.00937029
0.00966133
0.00995643
0.0102612
0.0105706
0.01089
0.0112111
0.0115414
0.0118727
0.0122129
0.0125582
0.0129102
0.013275
0.0136389
0.0140261
0.0144101
0.0147902
0.0151991
0.0118105
0.00884198
0.00280801
-0.00251473
-0.00450726
-0.00383548
-0.0025612
-0.00171969
-0.00125243
-0.000920231
-0.000727301
-0.000651425
-0.000546948
-0.000383698
-0.000275026
-0.000219446
-0.000115661
-2.58772e-06
5.62e-05
0.00014813
0.000320478
0.000486254
0.00060037
0.000697355
0.000809821
0.000940218
0.00105796
0.00115334
0.00125253
0.00136497
0.00147546
0.00157136
0.00166456
0.00175987
0.00184409
0.00191709
0.00198884
0.00206482
0.00214583
0.00222787
0.00231634
0.00241308
0.00250877
0.00260709
0.0027084
0.00279737
0.00288149
0.00297381
0.00305201
0.00312263
0.00320569
0.00330151
0.00341878
0.00355531
0.00368563
0.0038162
0.00395603
0.00409065
0.00421182
0.0043165
0.00443672
0.00459674
0.00476414
0.00491073
0.00507471
0.00526934
0.00546277
0.00565407
0.00585895
0.00607628
0.00629242
0.00651636
0.00674891
0.00698561
0.00722847
0.007475
0.00773046
0.00798724
0.00825378
0.00852288
0.00880067
0.00908338
0.00937032
0.00966135
0.00995645
0.0102612
0.0105706
0.01089
0.0112111
0.0115414
0.0118727
0.0122129
0.0125582
0.0129102
0.013275
0.0136389
0.0140261
0.0144101
0.0147903
0.0151993
0.0112058
0.00865303
0.00305946
-0.0021371
-0.00426741
-0.00374174
-0.00251947
-0.00168374
-0.0012179
-0.000892649
-0.000706077
-0.000632803
-0.000530451
-0.000370147
-0.000263232
-0.000208462
-0.000106065
5.91158e-06
6.45996e-05
0.000155898
0.000326421
0.000490658
0.000604487
0.000701628
0.000813708
0.000943328
0.00106055
0.00115579
0.0012548
0.0013669
0.00147711
0.00157291
0.00166604
0.00176123
0.00184529
0.00191818
0.00198987
0.00206579
0.00214676
0.00222878
0.00231721
0.0024139
0.00250956
0.0026079
0.00270928
0.00279829
0.00288232
0.00297453
0.00305266
0.00312328
0.00320638
0.00330216
0.00341935
0.00355584
0.00368618
0.00381679
0.0039566
0.00409115
0.00421225
0.0043169
0.0044371
0.00459708
0.00476445
0.004911
0.00507496
0.00526957
0.00546298
0.00565425
0.00585912
0.00607644
0.00629255
0.00651648
0.00674902
0.0069857
0.00722856
0.00747507
0.00773053
0.00798729
0.00825383
0.00852293
0.0088007
0.00908342
0.00937035
0.00966137
0.00995647
0.0102612
0.0105707
0.0108901
0.0112111
0.0115414
0.0118727
0.0122129
0.0125582
0.0129102
0.013275
0.0136389
0.0140261
0.0144101
0.0147903
0.0151995
0.0106156
0.00842931
0.0032963
-0.00175404
-0.00401493
-0.00364235
-0.00247744
-0.0016469
-0.0011808
-0.000862395
-0.00068279
-0.000612441
-0.000512351
-0.000355194
-0.000249982
-0.000195777
-9.47705e-05
1.61367e-05
7.50775e-05
0.000165816
0.000333973
0.000496119
0.000609564
0.000706979
0.000818584
0.000947131
0.00106367
0.00115879
0.00125763
0.00136924
0.00147903
0.00157471
0.00166779
0.00176282
0.00184671
0.00191952
0.00199114
0.00206696
0.00214786
0.00222983
0.00231818
0.00241478
0.00251039
0.00260878
0.00271032
0.00279943
0.00288339
0.00297541
0.00305343
0.00312408
0.00320726
0.003303
0.00342005
0.00355647
0.00368688
0.0038176
0.00395741
0.00409182
0.00421283
0.00431749
0.00443767
0.00459759
0.00476489
0.0049114
0.00507533
0.00526992
0.00546328
0.00565452
0.00585937
0.00607666
0.00629275
0.00651665
0.00674918
0.00698584
0.00722868
0.00747518
0.00773063
0.00798738
0.0082539
0.008523
0.00880076
0.00908348
0.00937039
0.00966142
0.0099565
0.0102612
0.0105707
0.0108901
0.0112111
0.0115414
0.0118727
0.0122129
0.0125583
0.0129102
0.013275
0.0136389
0.0140261
0.0144101
0.0147903
0.0151997
0.0100477
0.00817869
0.00351785
-0.00136587
-0.00374826
-0.00353569
-0.00243502
-0.00160994
-0.00114173
-0.000829679
-0.00065766
-0.000590791
-0.000493168
-0.00033927
-0.000235785
-0.000182042
-8.23706e-05
2.75539e-05
8.70064e-05
0.000177294
0.000342808
0.000502523
0.000615491
0.000713221
0.000824263
0.0009515
0.00106722
0.00116226
0.00126093
0.00137194
0.00148122
0.00157675
0.00166975
0.00176458
0.0018483
0.0019211
0.00199272
0.00206846
0.00214924
0.00223112
0.00231934
0.00241576
0.00251125
0.0026097
0.00271147
0.0028008
0.00288471
0.00297651
0.00305439
0.00312513
0.00320843
0.0033041
0.0034209
0.00355718
0.00368773
0.00381867
0.0039585
0.00409272
0.00421363
0.00431833
0.00443851
0.00459832
0.00476552
0.00491199
0.0050759
0.00527042
0.00546372
0.00565491
0.00585973
0.00607699
0.00629304
0.00651691
0.00674941
0.00698605
0.00722887
0.00747535
0.00773078
0.00798751
0.00825402
0.0085231
0.00880085
0.00908356
0.00937046
0.00966148
0.00995655
0.0102613
0.0105707
0.0108901
0.0112111
0.0115415
0.0118727
0.0122129
0.0125583
0.0129102
0.013275
0.0136389
0.0140261
0.0144101
0.0147903
0.0152
0.00950969
0.00790602
0.00371895
-0.000975239
-0.00346643
-0.00342017
-0.00239202
-0.00157354
-0.00110109
-0.00079451
-0.000630645
-0.000567885
-0.000472971
-0.000322461
-0.000220807
-0.000167518
-6.91566e-05
3.9794e-05
9.98653e-05
0.000189798
0.000352577
0.000509683
0.00062209
0.000720122
0.000830521
0.000956288
0.00107109
0.00116607
0.00126458
0.00137493
0.00148362
0.00157898
0.00167187
0.00176641
0.00184996
0.00192283
0.00199458
0.00207031
0.00215101
0.00223277
0.00232077
0.0024169
0.00251219
0.00261064
0.00271266
0.00280231
0.00288624
0.00297779
0.00305557
0.0031265
0.00320999
0.00330556
0.00342195
0.00355796
0.00368868
0.00381998
0.00395988
0.00409387
0.00421466
0.00431948
0.0044397
0.00459934
0.00476638
0.00491283
0.00507671
0.00527114
0.00546433
0.00565549
0.00586026
0.00607746
0.00629346
0.00651729
0.00674976
0.00698635
0.00722913
0.00747559
0.00773099
0.0079877
0.00825418
0.00852324
0.00880098
0.00908368
0.00937057
0.00966157
0.00995663
0.0102613
0.0105708
0.0108902
0.0112112
0.0115415
0.0118728
0.012213
0.0125583
0.0129102
0.013275
0.0136389
0.0140261
0.0144101
0.0147903
0.0152003
0.0090064
0.00761458
0.00389361
-0.000585252
-0.00316853
-0.00329386
-0.0023478
-0.00153811
-0.00105925
-0.000756842
-0.000601544
-0.000543583
-0.000451716
-0.000304778
-0.000205072
-0.000152252
-5.52266e-05
5.26794e-05
0.000113393
0.000203056
0.000363073
0.000517449
0.000629213
0.000727514
0.000837211
0.000961403
0.00107522
0.00117013
0.00126847
0.00137812
0.00148619
0.00158137
0.0016741
0.00176827
0.00185159
0.00192461
0.00199662
0.00207247
0.00215316
0.00223483
0.00232256
0.00241829
0.00251326
0.00261162
0.00271387
0.00280388
0.00288786
0.00297915
0.0030569
0.00312816
0.00321201
0.00330749
0.00342332
0.00355884
0.00368968
0.00382144
0.00396147
0.00409522
0.00421592
0.00432096
0.00444129
0.0046007
0.00476752
0.00491397
0.00507783
0.00527211
0.00546517
0.00565627
0.00586099
0.0060781
0.00629403
0.00651782
0.00675023
0.00698677
0.0072295
0.00747592
0.00773129
0.00798796
0.00825441
0.00852345
0.00880117
0.00908385
0.00937071
0.00966169
0.00995674
0.0102614
0.0105709
0.0108902
0.0112113
0.0115416
0.0118728
0.012213
0.0125583
0.0129102
0.0132751
0.0136389
0.0140261
0.0144101
0.0147902
0.0152007
0.00854032
0.00730938
0.00403727
-0.000199408
-0.00285412
-0.00315441
-0.00230119
-0.00150398
-0.0010168
-0.000716753
-0.000570157
-0.000517733
-0.000429359
-0.0002862
-0.000188548
-0.000136225
-4.05974e-05
6.61635e-05
0.000127521
0.000216986
0.00037421
0.000525738
0.000636778
0.000735324
0.000844276
0.000966812
0.00107958
0.0011744
0.00127257
0.00138149
0.0014889
0.0015839
0.00167646
0.00177017
0.0018532
0.00192637
0.00199873
0.00207481
0.0021556
0.00223726
0.00232471
0.00241998
0.00251454
0.00261269
0.00271509
0.00280546
0.00288947
0.00298048
0.00305825