/*--------------------------------*- C++ -*----------------------------------*\
| =========                 |                                                 |
| \\      /  F ield         | OpenFOAM: The Open Source CFD Toolbox           |
|  \\    /   O peration     | Version:  2106                                  |
|   \\  /    A nd           | Website:  www.openfoam.com                      |
|    \\/     M anipulation  |                                                 |
\*---------------------------------------------------------------------------*/
FoamFile
{
    version     2.0;
    format      ascii;
    arch        "LSB;label=32;scalar=64";
    class       volVectorField;
    location    "0.145";
    object      U;
}
// * * * * * * * * * * * * * * * * * * * * * * * * * * * * * * * * * * * * * //

dimensions      [0 1 -1 0 0 0 0];

internalField   nonuniform List<vector> 
9600
(
(0.875566 0.00445883 0)
(1.11816 -0.00735754 0)
(0.884601 -0.0121836 0)
(1.13597 -0.00374289 0)
(0.885803 0.00931478 0)
(1.11865 0.00934594 0)
(0.890988 -0.000399802 0)
(1.11712 -0.00714174 0)
(0.891589 -0.00509778 0)
(1.12181 -0.00128806 0)
(0.892265 0.00422434 0)
(1.08669 0.00491104 0)
(0.895844 0.0103904 0)
(1.11996 -0.00173423 0)
(0.859319 -0.00193398 0)
(1.11021 -0.00346974 0)
(0.868519 -0.00967798 0)
(1.10713 -0.00602972 0)
(0.86681 -0.00585322 0)
(1.11525 -0.000765987 0)
(0.88614 0.00444856 0)
(1.10121 -0.00726245 0)
(0.892458 -0.0125316 0)
(1.1253 -0.00358224 0)
(0.895717 0.00933219 0)
(1.10449 0.00943819 0)
(0.911362 -0.000577747 0)
(1.09827 -0.00694221 0)
(0.911501 -0.00537171 0)
(1.1014 -0.00105781 0)
(0.915931 0.00454324 0)
(1.06164 0.00517074 0)
(0.928514 0.00948958 0)
(1.07835 -0.000782294 0)
(0.916831 -0.00186919 0)
(1.05026 -0.00371222 0)
(0.945829 -0.00940793 0)
(1.02669 -0.00655348 0)
(0.96904 -0.00520976 0)
(0.99947 -0.000318517 0)
(0.905191 0.00448069 0)
(1.07766 -0.00717581 0)
(0.908593 -0.0128672 0)
(1.10345 -0.00347876 0)
(0.917099 0.00938752 0)
(1.08003 0.00941719 0)
(0.941499 -0.000662693 0)
(1.06981 -0.00681048 0)
(0.942747 -0.00552297 0)
(1.06841 -0.000989839 0)
(0.951159 0.00499747 0)
(1.02975 0.00506475 0)
(0.965684 0.00909047 0)
(1.03949 -0.000577415 0)
(0.967574 -0.00140095 0)
(1.01123 -0.00428014 0)
(0.986659 -0.00877689 0)
(0.995548 -0.00722709 0)
(0.992146 -0.00432801 0)
(0.986839 -0.000432231 0)
(0.928918 0.00455765 0)
(1.05248 -0.00709994 0)
(0.929759 -0.0131533 0)
(1.07435 -0.0034737 0)
(0.944346 0.00949944 0)
(1.05431 0.0092629 0)
(0.970598 -0.000636876 0)
(1.04193 -0.00676321 0)
(0.971292 -0.00551729 0)
(1.0376 -0.00104436 0)
(0.979268 0.00541657 0)
(1.00998 0.00492031 0)
(0.98895 0.00892665 0)
(1.01967 -0.000669739 0)
(0.992053 -0.000884583 0)
(1.00114 -0.00453295 0)
(0.996534 -0.00844776 0)
(0.993124 -0.00733919 0)
(0.99205 -0.00397623 0)
(0.990621 0.00030571 0)
(0.952937 0.00465457 0)
(1.03051 -0.00703042 0)
(0.950498 -0.0133693 0)
(1.04473 -0.00357241 0)
(0.970004 0.00960467 0)
(1.03488 0.00906518 0)
(0.991746 -0.000543622 0)
(1.02172 -0.0067324 0)
(0.989073 -0.00544793 0)
(1.01726 -0.00113308 0)
(0.994489 0.00569454 0)
(1.00373 0.00485193 0)
(1.00033 0.00874626 0)
(1.01282 -0.000729824 0)
(1.00075 -0.000536787 0)
(1.00138 -0.00457083 0)
(0.998172 -0.00814124 0)
(0.993332 -0.00732234 0)
(0.991676 -0.00365587 0)
(0.990601 0.00080262 0)
(0.973393 0.00474391 0)
(1.01514 -0.00695321 0)
(0.966785 -0.0135009 0)
(1.02047 -0.00374586 0)
(0.989176 0.00962612 0)
(1.02402 0.00889546 0)
(1.00385 -0.000407001 0)
(1.01013 -0.00666764 0)
(0.996714 -0.00536575 0)
(1.00656 -0.00120848 0)
(1.00061 0.00578913 0)
(1.00386 0.00479247 0)
(1.00605 0.00859871 0)
(1.01102 -0.000721966 0)
(1.00334 -0.000325348 0)
(1.00255 -0.00447987 0)
(0.998763 -0.007795 0)
(0.992512 -0.00723359 0)
(0.991113 -0.00337803 0)
(0.989638 0.00126335 0)
(0.988089 0.00480215 0)
(1.00701 -0.00685484 0)
(0.977534 -0.0135439 0)
(1.00392 -0.00396578 0)
(1.00054 0.00952704 0)
(1.01927 0.0087778 0)
(1.00927 -0.000233767 0)
(1.00443 -0.00655409 0)
(0.99847 -0.00527792 0)
(1.00124 -0.00129173 0)
(1.00223 0.00573876 0)
(1.00494 0.00470765 0)
(1.00896 0.00849239 0)
(1.01046 -0.00066368 0)
(1.00383 -0.00013531 0)
(1.00286 -0.00434312 0)
(0.998983 -0.00744012 0)
(0.991776 -0.00700134 0)
(0.989987 -0.00316574 0)
(0.98872 0.00169293 0)
(0.996848 0.0048173 0)
(1.00443 -0.00673353 0)
(0.98386 -0.0135045 0)
(0.994098 -0.0042037 0)
(1.00513 0.00932225 0)
(1.01683 0.00869956 0)
(1.01069 -3.3577e-05 0)
(1.00173 -0.00640077 0)
(0.997894 -0.00517997 0)
(0.998127 -0.00139272 0)
(1.0017 0.00560466 0)
(1.00489 0.00458866 0)
(1.00971 0.00839912 0)
(1.0097 -0.000550634 0)
(1.00347 4.2776e-05 0)
(1.00253 -0.0041849 0)
(0.998828 -0.00708847 0)
(0.991385 -0.00665234 0)
(0.98893 -0.00299988 0)
(0.987788 0.00208555 0)
(1.00097 0.00479004 0)
(1.00488 -0.00660069 0)
(0.98749 -0.0133918 0)
(0.988683 -0.00442587 0)
(1.00488 0.00905511 0)
(1.01422 0.0086328 0)
(1.00998 0.000172023 0)
(1.00035 -0.00622545 0)
(0.996793 -0.00506375 0)
(0.995861 -0.00149744 0)
(0.999989 0.00543045 0)
(1.00346 0.00444465 0)
(1.00869 0.00830098 0)
(1.00842 -0.000409526 0)
(1.00267 0.000186381 0)
(1.00193 -0.00398639 0)
(0.998478 -0.00676633 0)
(0.991195 -0.00623248 0)
(0.988284 -0.00283664 0)
(0.986989 0.00247481 0)
(1.00227 0.0047304 0)
(1.00631 -0.00647058 0)
(0.989708 -0.013217 0)
(0.985691 -0.00460371 0)
(1.00186 0.00876763 0)
(1.01084 0.00855041 0)
(1.00828 0.000357695 0)
(0.999584 -0.00604544 0)
(0.995824 -0.00492471 0)
(0.994093 -0.00158725 0)
(0.997746 0.00524663 0)
(1.00121 0.00429208 0)
(1.0066 0.00817729 0)
(1.00683 -0.000268331 0)
(1.0017 0.000285847 0)
(1.00128 -0.00375032 0)
(0.998128 -0.00649237 0)
(0.991106 -0.00574962 0)
(0.988038 -0.00266424 0)
(0.986511 0.00284691 0)
(1.00227 0.00465083 0)
(1.00759 -0.00635178 0)
(0.991159 -0.0129928 0)
(0.984006 -0.00472189 0)
(0.997935 0.00848605 0)
(1.00723 0.00843592 0)
(1.00637 0.000505685 0)
(0.999134 -0.00587269 0)
(0.995146 -0.00476379 0)
(0.992816 -0.00164987 0)
(0.995569 0.00507204 0)
(0.998891 0.00414028 0)
(1.00426 0.00801488 0)
(1.00531 -0.000138476 0)
(1.00076 0.00033482 0)
(1.00068 -0.00349148 0)
(0.997874 -0.0062654 0)
(0.991088 -0.00521302 0)
(0.988068 -0.00247436 0)
(0.986412 0.00316967 0)
(1.00189 0.0045611 0)
(1.00838 -0.00624583 0)
(0.992107 -0.0127327 0)
(0.983112 -0.00478023 0)
(0.994429 0.00822047 0)
(1.00413 0.00828462 0)
(1.00471 0.000611347 0)
(0.998861 -0.00571155 0)
(0.994749 -0.00458565 0)
(0.992031 -0.00168228 0)
(0.993883 0.0049107 0)
(0.997047 0.00399629 0)
(1.00229 0.00780903 0)
(1.00408 -1.71331e-05 0)
(1.00003 0.000327517 0)
(1.00017 -0.00320829 0)
(0.997723 -0.00606945 0)
(0.991139 -0.00465971 0)
(0.988258 -0.00225362 0)
(0.986629 0.00341575 0)
(1.00153 0.00446733 0)
(1.00872 -0.00615053 0)
(0.992691 -0.0124477 0)
(0.982744 -0.0047891 0)
(0.99197 0.00797025 0)
(1.00191 0.00810033 0)
(1.0035 0.000681052 0)
(0.998686 -0.00555973 0)
(0.994568 -0.00439697 0)
(0.99166 -0.00168837 0)
(0.992823 0.00475807 0)
(0.995866 0.00386449 0)
(1.00094 0.00756102 0)
(1.00321 0.000104677 0)
(0.999543 0.000271591 0)
(0.999759 -0.00289981 0)
(0.99764 -0.00589395 0)
(0.99125 -0.00410744 0)
(0.988531 -0.00199058 0)
(0.987056 0.0035645 0)
(1.0013 0.00437249 0)
(1.00878 -0.00606247 0)
(0.993026 -0.0121452 0)
(0.982716 -0.00476278 0)
(0.990584 0.00772977 0)
(1.00057 0.00789101 0)
(1.0027 0.000725839 0)
(0.998564 -0.00541197 0)
(0.994527 -0.00420487 0)
(0.991577 -0.00167387 0)
(0.992296 0.00460581 0)
(0.995256 0.0037475 0)
(1.00014 0.00727583 0)
(1.00263 0.000233474 0)
(0.999241 0.000188673 0)
(0.999433 -0.00257739 0)
(0.997592 -0.00571973 0)
(0.991411 -0.00357628 0)
(0.988846 -0.00166029 0)
(0.987594 0.00362685 0)
(1.00115 0.00427779 0)
(1.00869 -0.00597898 0)
(0.993216 -0.0118302 0)
(0.982885 -0.00471403 0)
(0.989987 0.00749301 0)
(0.999849 0.00766454 0)
(1.0022 0.000755971 0)
(0.998473 -0.00526435 0)
(0.994565 -0.00401227 0)
(0.991661 -0.0016426 0)
(0.992116 0.00444685 0)
(0.995016 0.0036473 0)
(0.999706 0.00695972 0)
(1.00224 0.000377 0)
(0.999054 7.42354e-05 0)
(0.999165 -0.00224335 0)
(0.997561 -0.00552428 0)
(0.991607 -0.00309846 0)
(0.989179 -0.00126093 0)
(0.988181 0.00362295 0)
(1.00106 0.00418378 0)
(1.00854 -0.00589887 0)
(0.993332 -0.0115052 0)
(0.983155 -0.0046518 0)
(0.989851 0.00725611 0)
(0.999485 0.0074268 0)
(1.00187 0.000777894 0)
(0.998398 -0.00511372 0)
(0.994642 -0.00382259 0)
(0.991829 -0.00159615 0)
(0.992122 0.004275 0)
(0.994968 0.00356497 0)
(0.999473 0.00661966 0)
(1.00195 0.000536228 0)
(0.998926 -5.91879e-05 0)
(0.998932 -0.00190883 0)
(0.997537 -0.00529264 0)
(0.991829 -0.0026825 0)
(0.989518 -0.000809241 0)
(0.988781 0.00357955 0)
(1.00099 0.00409079 0)
(1.00836 -0.00582204 0)
(0.993417 -0.0111715 0)
(0.983474 -0.00458092 0)
(0.989942 0.00701681 0)
(0.999291 0.00718182 0)
(1.0016 0.000794949 0)
(0.998331 -0.00495599 0)
(0.994738 -0.00364161 0)
(0.992033 -0.00153652 0)
(0.992212 0.00408596 0)
(0.995 0.00350142 0)
(0.999327 0.00625913 0)
(1.00169 0.000704995 0)
(0.998822 -0.000183935 0)
(0.998718 -0.00159429 0)
(0.997516 -0.00500685 0)
(0.992072 -0.00231936 0)
(0.989855 -0.000336343 0)
(0.989377 0.0035213 0)
(1.00094 0.00399903 0)
(1.00816 -0.00574831 0)
(0.993492 -0.0108301 0)
(0.983815 -0.00450303 0)
(0.99013 0.00677371 0)
(0.999165 0.00693211 0)
(1.00137 0.000807716 0)
(0.998268 -0.00478985 0)
(0.994844 -0.0034701 0)
(0.992249 -0.00146547 0)
(0.992337 0.00388091 0)
(0.99506 0.0034519 0)
(0.999215 0.00588522 0)
(1.00145 0.000876615 0)
(0.998728 -0.000295089 0)
(0.998518 -0.00131046 0)
(0.997497 -0.00466015 0)
(0.992335 -0.00200743 0)
(0.990188 0.000150393 0)
(0.98996 0.00346867 0)
(1.00088 0.0039087 0)
(1.00796 -0.00567787 0)
(0.993565 -0.0104811 0)
(0.984167 -0.00441943 0)
(0.990358 0.00652703 0)
(0.999065 0.00667892 0)
(1.00115 0.000815534 0)
(0.998206 -0.00461497 0)
(0.994955 -0.00330933 0)
(0.99247 -0.00137957 0)
(0.992478 0.00366222 0)
(0.995127 0.00341282 0)
(0.999117 0.00550618 0)
(1.00121 0.00104034 0)
(0.998637 -0.000375623 0)
(0.998332 -0.00106912 0)
(0.997478 -0.00426198 0)
(0.992617 -0.0017439 0)
(0.990517 0.00061538 0)
(0.990518 0.00343687 0)
(1.00082 0.00382024 0)
(1.00776 -0.00561144 0)
(0.993638 -0.0101243 0)
(0.984526 -0.00433072 0)
(0.990603 0.00627682 0)
(0.998973 0.00642363 0)
(1.00093 0.000817582 0)
(0.998144 -0.00442957 0)
(0.995071 -0.00316244 0)
(0.992692 -0.00127496 0)
(0.992628 0.00342869 0)
(0.995195 0.00338394 0)
(0.999025 0.00513045 0)
(1.00097 0.00118858 0)
(0.998547 -0.000410248 0)
(0.998159 -0.000863282 0)
(0.997461 -0.00383361 0)
(0.992914 -0.001506 0)
(0.990845 0.00102366 0)
(0.991048 0.00343573 0)
(1.00077 0.00373373 0)
(1.00755 -0.00554859 0)
(0.993712 -0.00976119 0)
(0.98489 -0.00423587 0)
(0.99086 0.00602216 0)
(0.998887 0.00616852 0)
(1.00071 0.000811654 0)
(0.998081 -0.00423218 0)
(0.995191 -0.00303034 0)
(0.992914 -0.00115971 0)
(0.992784 0.00319124 0)
(0.995262 0.00335356 0)
(0.998938 0.00476782 0)
(1.00074 0.0013164 0)
(0.998456 -0.000399645 0)
(0.998 -0.000680651 0)
(0.997444 -0.003393 0)
(0.993222 -0.00127504 0)
(0.991173 0.00138688 0)
(0.991544 0.00346698 0)
(1.00071 0.00364919 0)
(1.00734 -0.00548933 0)
(0.993789 -0.00939206 0)
(0.985258 -0.00413511 0)
(0.991125 0.00576282 0)
(0.998805 0.00591525 0)
(1.00049 0.000796798 0)
(0.998019 -0.00402258 0)
(0.995314 -0.00291298 0)
(0.993135 -0.00103434 0)
(0.992947 0.00295119 0)
(0.995328 0.00331901 0)
(0.998855 0.00443007 0)
(1.00052 0.00141008 0)
(0.998363 -0.000349493 0)
(0.997855 -0.000515728 0)
(0.997429 -0.0029585 0)
(0.993538 -0.00104379 0)
(0.991505 0.00170606 0)
(0.992006 0.00352403 0)
(1.00066 0.00356732 0)
(1.00713 -0.00543438 0)
(0.993869 -0.00901737 0)
(0.98563 -0.00402763 0)
(0.991397 0.00549814 0)
(0.998728 0.00566437 0)
(1.00027 0.000772681 0)
(0.997956 -0.00380034 0)
(0.995441 -0.00280813 0)
(0.993356 -0.000903639 0)
(0.993113 0.0027111 0)
(0.995396 0.00327143 0)
(0.998775 0.00412738 0)
(1.0003 0.00145892 0)
(0.99827 -0.000266121 0)
(0.997722 -0.000363275 0)
(0.997416 -0.00253207 0)
(0.993861 -0.000810713 0)
(0.991839 0.0019864 0)
(0.992431 0.00360019 0)
(1.0006 0.00348784 0)
(1.00692 -0.00538264 0)
(0.993954 -0.00863871 0)
(0.986005 -0.00391205 0)
(0.991675 0.00522749 0)
(0.998657 0.00541942 0)
(1.00006 0.000736098 0)
(0.997893 -0.00356595 0)
(0.99557 -0.00271308 0)
(0.993575 -0.000771684 0)
(0.993284 0.00249002 0)
(0.995466 0.00319382 0)
(0.998697 0.00386231 0)
(1.00009 0.00148922 0)
(0.998179 -0.000160328 0)
(0.997602 -0.000201822 0)
(0.997407 -0.00211127 0)
(0.994187 -0.000586713 0)
(0.992178 0.00222379 0)
(0.992822 0.00368367 0)
(1.00054 0.00341078 0)
(1.00671 -0.00533367 0)
(0.994043 -0.00825759 0)
(0.986381 -0.00378786 0)
(0.991958 0.00495067 0)
(0.998591 0.00518198 0)
(0.999855 0.000689167 0)
(0.997832 -0.00332455 0)
(0.995701 -0.00262221 0)
(0.993794 -0.000642636 0)
(0.993455 0.00228805 0)
(0.995538 0.00309449 0)
(0.998622 0.00363392 0)
(0.999898 0.00150072 0)
(0.998092 -5.17253e-05 0)
(0.997494 -3.34434e-05 0)
(0.997399 -0.00170138 0)
(0.994514 -0.000371762 0)
(0.992522 0.00241882 0)
(0.993178 0.00377363 0)
(1.00048 0.00333661 0)
(1.0065 -0.00528752 0)
(0.994138 -0.00787594 0)
(0.98676 -0.00365226 0)
(0.992246 0.00466471 0)
(0.998531 0.00495322 0)
(0.999654 0.000629684 0)
(0.997771 -0.0030747 0)
(0.995834 -0.00253769 0)
(0.994011 -0.00053107 0)
(0.993627 0.00211287 0)
(0.995614 0.00297172 0)
(0.998551 0.0034294 0)
(0.999711 0.00149876 0)
(0.998011 5.57209e-05 0)
(0.9974 0.000124655 0)
(0.997393 -0.00130069 0)
(0.994839 -0.000161888 0)
(0.992872 0.00256881 0)
(0.993503 0.00386594 0)
(1.00042 0.00326511 0)
(1.00629 -0.00524396 0)
(0.99424 -0.00749338 0)
(0.98714 -0.00350763 0)
(0.992538 0.00436944 0)
(0.998476 0.00473596 0)
(0.999461 0.000558367 0)
(0.997713 -0.0028239 0)
(0.995967 -0.00244938 0)
(0.994229 -0.000434541 0)
(0.993799 0.00197602 0)
(0.995692 0.00282075 0)
(0.998484 0.00324428 0)
(0.999533 0.00151192 0)
(0.997937 0.000164139 0)
(0.99732 0.000273159 0)
(0.997387 -0.000902431 0)
(0.995156 3.27541e-05 0)
(0.993229 0.00266645 0)
(0.9938 0.00395014 0)
(1.00036 0.0031963 0)
(1.00608 -0.0052007 0)
(0.994348 -0.00711534 0)
(0.98752 -0.00335017 0)
(0.992835 0.00406585 0)
(0.998426 0.0045285 0)
(0.999275 0.000484941 0)
(0.997658 -0.0025773 0)
(0.9961 -0.00235316 0)
(0.994447 -0.000361088 0)
(0.993967 0.00186757 0)
(0.995773 0.00266302 0)
(0.998426 0.00306685 0)
(0.999365 0.0015365 0)
(0.997868 0.000275649 0)
(0.997258 0.000409685 0)
(0.997384 -0.000522669 0)
(0.99546 0.000230917 0)
(0.993592 0.00271406 0)
(0.994075 0.00401341 0)
(1.0003 0.00312963 0)
(1.00588 -0.00515594 0)
(0.994464 -0.0067441 0)
(0.987901 -0.00317707 0)
(0.993136 0.00375329 0)
(0.998382 0.00433257 0)
(0.999098 0.000402672 0)
(0.997607 -0.00233777 0)
(0.996232 -0.00224542 0)
(0.994667 -0.000320484 0)
(0.994134 0.00178513 0)
(0.995854 0.00250705 0)
(0.998376 0.00288172 0)
(0.999209 0.00157474 0)
(0.997804 0.000389709 0)
(0.997212 0.000533301 0)
(0.997385 -0.000178184 0)
(0.995748 0.000458356 0)
(0.993957 0.0027379 0)
(0.994334 0.00404805 0)
(1.00024 0.00306521 0)
(1.00568 -0.00511099 0)
(0.994589 -0.00637954 0)
(0.98828 -0.0029864 0)
(0.993441 0.00342962 0)
(0.998344 0.00414638 0)
(0.998929 0.000318788 0)
(0.997563 -0.00211363 0)
(0.996361 -0.00211548 0)
(0.994888 -0.000307386 0)
(0.994299 0.00172177 0)
(0.995933 0.00235851 0)
(0.998337 0.00269269 0)
(0.999064 0.00161374 0)
(0.997742 0.000510234 0)
(0.99718 0.000645517 0)
(0.997395 0.000133777 0)
(0.99602 0.00069745 0)
(0.994317 0.0027736 0)
(0.994576 0.00406706 0)
(1.00019 0.00300318 0)
(1.00548 -0.00506331 0)
(0.994725 -0.00602824 0)
(0.988657 -0.0027812 0)
(0.99375 0.00309772 0)
(0.998314 0.00396515 0)
(0.998769 0.000245479 0)
(0.997527 -0.0019148 0)
(0.996487 -0.00196309 0)
(0.995109 -0.000311464 0)
(0.994465 0.00165954 0)
(0.996009 0.00223512 0)
(0.998309 0.00249686 0)
(0.998936 0.00164373 0)
(0.997684 0.000652265 0)
(0.997162 0.000747063 0)
(0.997416 0.000409993 0)
(0.996279 0.000913629 0)
(0.994671 0.00281174 0)
(0.9948 0.0040797 0)
(1.00013 0.00294264 0)
(1.00529 -0.00501044 0)
(0.994871 -0.00569082 0)
(0.98903 -0.00255989 0)
(0.994063 0.00276216 0)
(0.998292 0.00378893 0)
(0.998615 0.000181534 0)
(0.997499 -0.00174513 0)
(0.99661 -0.00178668 0)
(0.99533 -0.000330585 0)
(0.994632 0.00159518 0)
(0.996079 0.00214328 0)
(0.998289 0.00230124 0)
(0.998826 0.00166096 0)
(0.997628 0.000813642 0)
(0.997153 0.000847103 0)
(0.997447 0.000644238 0)
(0.996527 0.00111037 0)
(0.99502 0.00283355 0)
(0.995006 0.00409884 0)
(1.00007 0.00288251 0)
(1.0051 -0.00494972 0)
(0.995029 -0.00537036 0)
(0.989399 -0.00231822 0)
(0.994378 0.00242283 0)
(0.99828 0.00360781 0)
(0.998469 0.000135553 0)
(0.997481 -0.00160736 0)
(0.996729 -0.00159396 0)
(0.995548 -0.00035644 0)
(0.994804 0.00151534 0)
(0.996145 0.00208247 0)
(0.998276 0.00212048 0)
(0.99874 0.0016495 0)
(0.997578 0.000984895 0)
(0.997148 0.000951659 0)
(0.997488 0.000830757 0)
(0.996763 0.00129153 0)
(0.995367 0.00283213 0)
(0.995203 0.00411706 0)
(1.00001 0.00282267 0)
(1.00491 -0.00487963 0)
(0.995201 -0.0050695 0)
(0.989761 -0.00206046 0)
(0.994693 0.00208309 0)
(0.99828 0.00342218 0)
(0.998328 0.000116717 0)
(0.997474 -0.0015058 0)
(0.996847 -0.00139172 0)
(0.99576 -0.000369423 0)
(0.994983 0.00140991 0)
(0.996207 0.00203971 0)
(0.998264 0.00197272 0)
(0.998677 0.00160576 0)
(0.997536 0.0011487 0)
(0.997142 0.00108409 0)
(0.997537 0.000988858 0)
(0.99699 0.0014442 0)
(0.995711 0.00281275 0)
(0.9954 0.0041051 0)
(0.999961 0.00276325 0)
(1.00473 -0.00479903 0)
(0.995389 -0.00479254 0)
(0.990117 -0.00178445 0)
(0.995006 0.00175236 0)
(0.998296 0.00322358 0)
(0.998193 0.000126472 0)
(0.997477 -0.00143887 0)
(0.996965 -0.00118719 0)
(0.995964 -0.000364008 0)
(0.995169 0.00128105 0)
(0.99627 0.00200322 0)
(0.99825 0.00186162 0)
(0.998635 0.00154018 0)
(0.997511 0.0012847 0)
(0.997136 0.00124684 0)
(0.997585 0.00114252 0)
(0.997206 0.00156071 0)
(0.996049 0.00278311 0)
(0.995608 0.00405332 0)
(0.99991 0.00270172 0)
(1.00455 -0.00470221 0)
(0.995592 -0.00454209 0)
(0.990467 -0.00149949 0)
(0.995315 0.00143528 0)
(0.998328 0.00300466 0)
(0.998064 0.000170668 0)
(0.997489 -0.00139593 0)
(0.997086 -0.00100257 0)
(0.996156 -0.000327761 0)
(0.995361 0.00113588 0)
(0.996339 0.00196059 0)
(0.998232 0.00179007 0)
(0.998611 0.00146784 0)
(0.997508 0.00137976 0)
(0.997132 0.00140815 0)
(0.997628 0.00129842 0)
(0.997409 0.00165341 0)
(0.996381 0.00273867 0)
(0.995831 0.00396548 0)
(0.999861 0.00263734 0)
(1.00437 -0.00458636 0)
(0.995812 -0.00432021 0)
(0.99081 -0.00120393 0)
(0.995618 0.00113777 0)
(0.998378 0.00276679 0)
(0.997941 0.000244292 0)
(0.997507 -0.001364 0)
(0.997212 -0.000844291 0)
(0.996337 -0.000254013 0)
(0.995556 0.000990147 0)
(0.996418 0.00189476 0)
(0.998211 0.00176295 0)
(0.998598 0.00140609 0)
(0.997528 0.0014273 0)
(0.997138 0.00154841 0)
(0.997664 0.00146117 0)
(0.997592 0.00174941 0)
(0.996702 0.00267887 0)
(0.996075 0.00384509 0)
(0.999816 0.00257002 0)
(1.0042 -0.00445221 0)
(0.99605 -0.00412761 0)
(0.991147 -0.00090363 0)
(0.995909 0.000869452 0)
(0.998449 0.00249885 0)
(0.997826 0.0003421 0)
(0.997529 -0.00133575 0)
(0.997347 -0.000723272 0)
(0.996505 -0.000147901 0)
(0.995748 0.000856412 0)
(0.996512 0.0017978 0)
(0.99819 0.00175777 0)
(0.998586 0.00136704 0)
(0.997567 0.00143433 0)
(0.997161 0.00165916 0)
(0.997698 0.00161865 0)
(0.997753 0.0018549 0)
(0.997003 0.00262049 0)
(0.996335 0.00369607 0)
(0.999775 0.00249849 0)
(1.00403 -0.00429618 0)
(0.996305 -0.00396439 0)
(0.99148 -0.000606672 0)
(0.996186 0.000633853 0)
(0.998542 0.00220586 0)
(0.99772 0.000457238 0)
(0.997551 -0.00129657 0)
(0.997494 -0.000652292 0)
(0.996663 -1.43665e-05 0)
(0.995932 0.000753358 0)
(0.996621 0.00166619 0)
(0.998175 0.00175905 0)
(0.998573 0.00136983 0)
(0.997622 0.00142363 0)
(0.997203 0.00173316 0)
(0.997735 0.00175696 0)
(0.997892 0.00196645 0)
(0.997276 0.00258633 0)
(0.996607 0.00352772 0)
(0.999738 0.0024207 0)
(1.00386 -0.00411321 0)
(0.996577 -0.00383442 0)
(0.991809 -0.00031604 0)
(0.996446 0.000441315 0)
(0.998656 0.0018868 0)
(0.997628 0.000578716 0)
(0.997569 -0.00123287 0)
(0.997653 -0.000628658 0)
(0.996817 0.000125617 0)
(0.996101 0.000697694 0)
(0.996743 0.00150719 0)
(0.998177 0.00174373 0)
(0.998557 0.00141665 0)
(0.997682 0.00142002 0)
(0.997265 0.0017596 0)
(0.997782 0.00186358 0)
(0.998015 0.002076 0)
(0.997515 0.00258029 0)
(0.996878 0.00335687 0)
(0.999706 0.00233599 0)
(1.00369 -0.00390443 0)
(0.996865 -0.00373125 0)
(0.992136 -4.02225e-05 0)
(0.996683 0.000295571 0)
(0.998792 0.00154758 0)
(0.997553 0.000699325 0)
(0.997577 -0.00113458 0)
(0.997824 -0.000648815 0)
(0.996974 0.000252781 0)
(0.99625 0.000696303 0)
(0.996872 0.00134361 0)
(0.998201 0.00169643 0)
(0.998543 0.00148422 0)
(0.997737 0.00143809 0)
(0.997341 0.00175286 0)
(0.997845 0.00192852 0)
(0.99813 0.00216683 0)
(0.997718 0.00260699 0)
(0.997139 0.0032048 0)
(0.999679 0.00224376 0)
(1.00352 -0.00367014 0)
(0.997167 -0.00365065 0)
(0.992465 0.000212624 0)
(0.996895 0.000203111 0)
(0.998947 0.00119273 0)
(0.997501 0.000804847 0)
(0.997572 -0.000994879 0)
(0.998003 -0.000695164 0)
(0.997141 0.000348346 0)
(0.99638 0.00074415 0)
(0.996999 0.00119347 0)
(0.99825 0.0016065 0)
(0.998538 0.00155093 0)
(0.997783 0.00148716 0)
(0.997422 0.00173815 0)
(0.997925 0.00194621 0)
(0.99825 0.00221792 0)
(0.997891 0.0026603 0)
(0.997374 0.0030942 0)
(0.999657 0.0021421 0)
(1.00335 -0.00340776 0)
(0.997482 -0.00359136 0)
(0.992797 0.0004306 0)
(0.997079 0.000163254 0)
(0.999117 0.000835334 0)
(0.997477 0.000883341 0)
(0.997552 -0.000817708 0)
(0.998182 -0.00075669 0)
(0.997325 0.000395969 0)
(0.996493 0.000831202 0)
(0.997113 0.00107965 0)
(0.998326 0.00147308 0)
(0.998553 0.00159361 0)
(0.997821 0.00156856 0)
(0.997496 0.00173921 0)
(0.998015 0.00193065 0)
(0.998388 0.00221941 0)
(0.99805 0.00270406 0)
(0.99757 0.00304823 0)
(0.999641 0.00203144 0)
(1.00317 -0.00312329 0)
(0.997804 -0.00354437 0)
(0.993136 0.000606881 0)
(0.997233 0.0001793 0)
(0.999298 0.000487382 0)
(0.997487 0.000921029 0)
(0.997517 -0.000598712 0)
(0.998355 -0.000812924 0)
(0.997533 0.000389982 0)
(0.996598 0.000938084 0)
(0.997203 0.001019 0)
(0.998418 0.00131966 0)
(0.9986 0.00159665 0)
(0.997857 0.00166551 0)
(0.997555 0.00176474 0)
(0.998102 0.00190413 0)
(0.998541 0.00217648 0)
(0.998219 0.00269971 0)
(0.99773 0.00305867 0)
(0.99963 0.00191197 0)
(1.00299 -0.00281977 0)
(0.99813 -0.00350261 0)
(0.993486 0.000735255 0)
(0.997357 0.000246604 0)
(0.999483 0.000162939 0)
(0.997536 0.000909448 0)
(0.99747 -0.000349488 0)
(0.998509 -0.000843226 0)
(0.997763 0.000328298 0)
(0.996705 0.00104065 0)
(0.997267 0.00101558 0)
(0.998518 0.00116564 0)
(0.998682 0.00154601 0)
(0.997901 0.00175459 0)
(0.997596 0.00181867 0)
(0.998176 0.00188573 0)
(0.998701 0.00210468 0)
(0.998414 0.00263437 0)
(0.997878 0.00307269 0)
(0.999626 0.00178316 0)
(1.00281 -0.00249822 0)
(0.998455 -0.00346363 0)
(0.993847 0.000810041 0)
(0.997452 0.000358006 0)
(0.999664 -0.000136386 0)
(0.997626 0.00084501 0)
(0.997417 -9.74145e-05 0)
(0.998637 -0.000837207 0)
(0.998015 0.000220306 0)
(0.996828 0.00112195 0)
(0.997303 0.00107126 0)
(0.998608 0.0010385 0)
(0.998801 0.0014429 0)
(0.997969 0.00181637 0)
(0.997623 0.00190218 0)
(0.998226 0.00188896 0)
(0.998851 0.00202829 0)
(0.998637 0.00252323 0)
(0.998046 0.00303303 0)
(0.999627 0.00164615 0)
(1.00261 -0.00216938 0)
(0.998772 -0.00341478 0)
(0.994224 0.00083186 0)
(0.997519 0.000502588 0)
(0.999831 -0.000389734 0)
(0.997759 0.000725802 0)
(0.997366 0.000150627 0)
(0.99873 -0.000779906 0)
(0.998281 8.66256e-05 0)
(0.996978 0.00116015 0)
(0.997317 0.00116459 0)
(0.998675 0.00095412 0)
(0.998948 0.00129971 0)
(0.998074 0.00182805 0)
(0.997645 0.0019939 0)
(0.998245 0.0019172 0)
(0.998979 0.0019615 0)
(0.99887 0.00239108 0)
(0.998256 0.00292259 0)
(0.999633 0.00150298 0)
(1.00241 -0.00183989 0)
(0.999076 -0.00334824 0)
(0.994616 0.000799873 0)
(0.997564 0.000664884 0)
(0.999976 -0.000574252 0)
(0.997933 0.00055999 0)
(0.997327 0.000386559 0)
(0.998786 -0.000667582 0)
(0.998551 -5.29963e-05 0)
(0.997162 0.0011426 0)
(0.997318 0.00127566 0)
(0.998706 0.000925119 0)
(0.999109 0.00114452 0)
(0.998226 0.00178036 0)
(0.997678 0.00207236 0)
(0.998235 0.00197904 0)
(0.999074 0.001912 0)
(0.999095 0.00226259 0)
(0.998506 0.00276601 0)
(0.999645 0.00135457 0)
(1.00221 -0.0015149 0)
(0.99936 -0.00325805 0)
(0.995025 0.000715721 0)
(0.997593 0.000835495 0)
(1.00009 -0.000691135 0)
(0.998144 0.000363152 0)
(0.99731 0.000585829 0)
(0.9988 -0.000499887 0)
(0.998812 -0.000183844 0)
(0.997385 0.00106675 0)
(0.997324 0.00138743 0)
(0.998697 0.000961541 0)
(0.999266 0.00100833 0)
(0.998422 0.00167491 0)
(0.997741 0.002114 0)
(0.9982 0.00206694 0)
(0.999127 0.00188764 0)
(0.999298 0.0021439 0)
(0.998769 0.00260412 0)
(0.999661 0.00120491 0)
(1.002 -0.00120551 0)
(0.999619 -0.00313595 0)
(0.995448 0.000593891 0)
(0.997613 0.000997217 0)
(1.00017 -0.000731524 0)
(0.998384 0.000152867 0)
(0.997327 0.00072476 0)
(0.998776 -0.000291079 0)
(0.999046 -0.000284251 0)
(0.997646 0.000935793 0)
(0.997351 0.00146738 0)
(0.99865 0.0010474 0)
(0.999396 0.000908885 0)
(0.998655 0.0015242 0)
(0.997852 0.00209836 0)
(0.998156 0.00215693 0)
(0.999133 0.00190331 0)
(0.999474 0.00202893 0)
(0.999019 0.00246647 0)
(0.999682 0.00105634 0)
(1.00179 -0.000916984 0)
(0.999847 -0.00297969 0)
(0.995882 0.000441968 0)
(0.997633 0.00113422 0)
(1.00021 -0.00070493 0)
(0.998639 -5.93105e-05 0)
(0.997384 0.00079947 0)
(0.998722 -7.15922e-05 0)
(0.999242 -0.000333202 0)
(0.997939 0.000771196 0)
(0.997416 0.00149883 0)
(0.998576 0.00116426 0)
(0.999484 0.000863409 0)
(0.998905 0.00136004 0)
(0.99802 0.0020222 0)
(0.998127 0.00221981 0)
(0.999087 0.00196631 0)
(0.999615 0.00192441 0)
(0.999248 0.00234586 0)
(0.999705 0.000911228 0)
(1.00158 -0.000653931 0)
(1.00004 -0.00278967 0)
(0.996322 0.000269563 0)
(0.99766 0.00123436 0)
(1.00021 -0.000616357 0)
(0.9989 -0.00025997 0)
(0.997485 0.000808017 0)
(0.998651 0.00015294 0)
(0.999391 -0.000322571 0)
(0.998248 0.000599066 0)
(0.997528 0.0014737 0)
(0.998492 0.00128775 0)
(0.999521 0.000874806 0)
(0.99915 0.00120796 0)
(0.998241 0.00189375 0)
(0.998142 0.00222958 0)
(0.999001 0.00205856 0)
(0.999707 0.00185732 0)
(0.999461 0.00221624 0)
(0.999731 0.000773693 0)
(1.00138 -0.00042452 0)
(1.0002 -0.00256665 0)
(0.996761 9.17528e-05 0)
(0.997703 0.00128931 0)
(1.00017 -0.000479123 0)
(0.99915 -0.000424689 0)
(0.997634 0.000754863 0)
(0.998577 0.000373192 0)
(0.999487 -0.000252763 0)
(0.998557 0.000437177 0)
(0.997692 0.00138999 0)
(0.998417 0.00139252 0)
(0.999506 0.000938733 0)
(0.999367 0.00108994 0)
(0.998502 0.00173452 0)
(0.99822 0.00217598 0)
(0.998901 0.00214169 0)
(0.999731 0.00185136 0)
(0.999661 0.00207149 0)
(0.999759 0.000645302 0)
(1.00118 -0.000230322 0)
(1.00032 -0.00231595 0)
(0.997193 -7.82252e-05 0)
(0.997766 0.0012935 0)
(1.0001 -0.000313384 0)
(0.999378 -0.000538059 0)
(0.997827 0.000655125 0)
(0.998517 0.000555672 0)
(0.99953 -0.000133105 0)
(0.998847 0.000306938 0)
(0.997905 0.0012619 0)
(0.998372 0.00145821 0)
(0.99945 0.00103552 0)
(0.999537 0.00101822 0)
(0.998778 0.00157065 0)
(0.998363 0.00206704 0)
(0.998828 0.00217923 0)
(0.999686 0.00190151 0)
(0.999832 0.00193998 0)
(0.999787 0.000528559 0)
(1.001 -7.3139e-05 0)
(1.0004 -0.00204719 0)
(0.997608 -0.000234531 0)
(0.997853 0.00124822 0)
(0.999999 -0.000134927 0)
(0.999574 -0.000593344 0)
(0.998054 0.000528259 0)
(0.998483 0.00068632 0)
(0.999528 1.10012e-05 0)
(0.9991 0.000217352 0)
(0.998155 0.00110787 0)
(0.998372 0.00147211 0)
(0.999369 0.00113995 0)
(0.999653 0.000995201 0)
(0.999047 0.00142311 0)
(0.998561 0.00192386 0)
(0.99881 0.00215334 0)
(0.999595 0.00197065 0)
(0.999946 0.0018567 0)
(0.999816 0.000425122 0)
(1.00083 4.65161e-05 0)
(1.00045 -0.00176948 0)
(0.997998 -0.000367877 0)
(0.997968 0.00116027 0)
(0.999891 4.00884e-05 0)
(0.999731 -0.00059083 0)
(0.998305 0.000391335 0)
(0.998483 0.000759973 0)
(0.999492 0.000172132 0)
(0.999309 0.000179352 0)
(0.998427 0.000950931 0)
(0.998425 0.00143442 0)
(0.999284 0.00123149 0)
(0.999714 0.0010152 0)
(0.999287 0.00130518 0)
(0.99879 0.00177019 0)
(0.998862 0.00206831 0)
(0.999499 0.00201512 0)
(0.999988 0.00183249 0)
(0.999843 0.000335795 0)
(1.00067 0.000133788 0)
(1.00047 -0.00149257 0)
(0.998358 -0.000464818 0)
(0.998108 0.00104039 0)
(0.99978 0.000200426 0)
(0.999846 -0.000537347 0)
(0.998564 0.000260483 0)
(0.998524 0.000776111 0)
(0.99944 0.000332547 0)
(0.999465 0.000193836 0)
(0.9987 0.000809603 0)
(0.998529 0.00135334 0)
(0.999215 0.00129294 0)
(0.99973 0.00106191 0)
(0.999485 0.00122269 0)
(0.999028 0.00162596 0)
(0.998975 0.00194566 0)
(0.999436 0.00200799 0)
(0.999967 0.0018446 0)
(0.999869 0.000260599 0)
(1.00054 0.000192198 0)
(1.00046 -0.00122597 0)
(0.998681 -0.0005234 0)
(0.998272 0.00089939 0)
(0.999678 0.000335484 0)
(0.99992 -0.000444059 0)
(0.998817 0.000150478 0)
(0.998606 0.000748455 0)
(0.999387 0.000465484 0)
(0.999572 0.000245184 0)
(0.998957 0.000695436 0)
(0.998676 0.00124358 0)
(0.999178 0.0013147 0)
(0.999715 0.00111559 0)
(0.999637 0.00117433 0)
(0.999256 0.00150035 0)
(0.999128 0.00180982 0)
(0.999428 0.00194707 0)
(0.999916 0.00185609 0)
(0.999893 0.000199153 0)
(1.00042 0.000224224 0)
(1.00044 -0.000977716 0)
(0.998964 -0.000543089 0)
(0.998453 0.000750208 0)
(0.999594 0.000433674 0)
(0.999956 -0.00032527 0)
(0.999053 7.08828e-05 0)
(0.998723 0.000689445 0)
(0.999347 0.000564585 0)
(0.999636 0.000319923 0)
(0.999184 0.000616841 0)
(0.998854 0.00112363 0)
(0.999182 0.00129642 0)
(0.999687 0.00116034 0)
(0.999744 0.00115351 0)
(0.999459 0.00139658 0)
(0.999299 0.00167835 0)
(0.999474 0.00184903 0)
(0.99987 0.00183929 0)
(0.999914 0.000150259 0)
(1.00032 0.000236214 0)
(1.0004 -0.000753611 0)
(0.999206 -0.000527946 0)
(0.998644 0.00060487 0)
(0.999533 0.000492332 0)
(0.999963 -0.000196166 0)
(0.999262 2.56351e-05 0)
(0.998867 0.000613641 0)
(0.999329 0.000626053 0)
(0.999669 0.000401899 0)
(0.999374 0.000573634 0)
(0.999045 0.00100908 0)
(0.999227 0.001245 0)
(0.999663 0.00118521 0)
(0.999813 0.00114874 0)
(0.999631 0.00131508 0)
(0.999472 0.00155905 0)
(0.99956 0.00173551 0)
(0.999855 0.00178615 0)
(0.999933 0.000112646 0)