/*--------------------------------*- C++ -*----------------------------------*\
| =========                 |                                                 |
| \\      /  F ield         | OpenFOAM: The Open Source CFD Toolbox           |
|  \\    /   O peration     | Version:  2106                                  |
|   \\  /    A nd           | Website:  www.openfoam.com                      |
|    \\/     M anipulation  |                                                 |
\*---------------------------------------------------------------------------*/
FoamFile
{
    version     2.0;
    format      ascii;
    arch        "LSB;label=32;scalar=64";
    class       volScalarField;
    location    "0.135";
    object      p;
}
// * * * * * * * * * * * * * * * * * * * * * * * * * * * * * * * * * * * * * //

dimensions      [0 2 -2 0 0 0 0];

internalField   nonuniform List<scalar> 
9600
(
8.82371e-12
0.00118538
0.00208362
0.00220305
0.00162111
0.00182067
0.00228292
0.00250854
0.00214168
0.00323247
0.00322076
0.0024907
0.00359639
0.00425312
0.00382419
0.00463343
0.00466491
0.00534979
0.00570197
0.00814708
1.02399e-05
0.00118587
0.00208668
0.00220001
0.00162066
0.0018202
0.00228514
0.00250619
0.00214317
0.00322537
0.00322311
0.00249436
0.00359284
0.00423817
0.00385337
0.00460428
0.00468152
0.00526204
0.00573889
0.00791299
1.77098e-05
0.00118693
0.00209309
0.00219466
0.00161895
0.00182208
0.00228865
0.00250007
0.002146
0.00321633
0.00322566
0.00250319
0.00358576
0.00422021
0.00387797
0.00455778
0.00470414
0.00517681
0.00577184
0.00760885
2.25191e-05
0.00118834
0.00210431
0.00218881
0.00161418
0.00182829
0.0022938
0.00248982
0.00215088
0.00320799
0.00322489
0.00251771
0.00357714
0.00419773
0.00390091
0.00450264
0.00472895
0.00509897
0.00577293
0.00732282
2.4511e-05
0.00119006
0.00212134
0.00218199
0.00160635
0.00183927
0.00230066
0.0024758
0.00215805
0.00319959
0.00322293
0.00253556
0.00356698
0.00417271
0.00392529
0.00444136
0.00475727
0.00502002
0.00574258
0.00707386
2.39189e-05
0.00119227
0.00214383
0.00217354
0.00159634
0.00185428
0.00230887
0.00245919
0.00216702
0.00319096
0.00322132
0.00255418
0.00355674
0.00414669
0.00394951
0.00437818
0.00478689
0.0049379
0.0056904
0.00685598
2.13438e-05
0.0011952
0.00217067
0.00216356
0.00158501
0.00187188
0.00231805
0.00244127
0.00217723
0.00318216
0.00322041
0.00257234
0.00354722
0.00411959
0.00397294
0.00431616
0.0048124
0.00485861
0.0056191
0.00665534
1.7578e-05
0.00119902
0.00220076
0.00215268
0.00157288
0.00189056
0.002328
0.00242299
0.00218823
0.00317317
0.00322023
0.00258921
0.00353827
0.00409167
0.00399555
0.00425619
0.00483093
0.00478597
0.00552519
0.00646478
1.33437e-05
0.00120369
0.00223335
0.00214163
0.00156011
0.00190904
0.00233864
0.00240485
0.00219978
0.00316403
0.00322061
0.00260414
0.0035297
0.00406349
0.0040166
0.00419912
0.00484098
0.00472072
0.00540716
0.00628251
9.12332e-06
0.00120901
0.00226806
0.00213098
0.00154677
0.00192655
0.00234989
0.00238707
0.00221175
0.00315477
0.00322135
0.00261687
0.00352121
0.00403556
0.00403506
0.00414608
0.0048407
0.00466269
0.00526765
0.00610647
5.15255e-06
0.00121476
0.00230461
0.00212103
0.00153291
0.00194278
0.00236169
0.00236965
0.00222401
0.00314539
0.00322241
0.00262745
0.00351245
0.00400856
0.00405
0.00409769
0.00482823
0.00461188
0.00511085
0.0059321
1.48282e-06
0.00122071
0.00234278
0.00211181
0.00151862
0.00195773
0.002374
0.00235254
0.00223639
0.00313593
0.00322379
0.00263613
0.00350297
0.00398328
0.00406046
0.00405423
0.0048025
0.00456729
0.00494112
0.00575398
-1.90342e-06
0.0012267
0.00238228
0.00210319
0.00150402
0.00197157
0.00238678
0.00233563
0.00224868
0.0031264
0.00322542
0.00264336
0.00349224
0.00396041
0.00406569
0.00401577
0.00476328
0.00452636
0.00476325
0.00556834
-5.01452e-06
0.00123258
0.00242286
0.00209504
0.00148922
0.00198447
0.0024
0.00231886
0.00226069
0.00311688
0.00322715
0.00264967
0.00347962
0.00394048
0.00406516
0.00398187
0.00471119
0.00448553
0.00458242
0.00537391
-7.82709e-06
0.00123825
0.00246431
0.00208728
0.0014743
0.00199656
0.00241358
0.00230227
0.00227224
0.0031075
0.00322873
0.00265561
0.00346453
0.00392386
0.0040586
0.00395144
0.00464798
0.00444092
0.00440319
0.00517114
-1.02819e-05
0.0012436
0.00250648
0.00207987
0.00145932
0.00200787
0.00242746
0.00228593
0.00228314
0.00309849
0.00322975
0.00266169
0.0034466
0.00391063
0.0040461
0.00392286
0.00457607
0.00438917
0.00422871
0.00496165
-1.22849e-05
0.00124851
0.00254926
0.00207284
0.00144434
0.00201842
0.00244154
0.00226997
0.00229313
0.00309014
0.00322976
0.00266827
0.00342555
0.00390054
0.00402833
0.00389382
0.00449776
0.00432838
0.00406092
0.00474771
-1.37146e-05
0.00125288
0.00259253
0.00206623
0.0014294
0.00202823
0.00245569
0.0022546
0.00230196
0.00308276
0.0032284
0.00267562
0.00340122
0.00389296
0.00400651
0.00386158
0.0044149
0.00425881
0.0039006
0.00453128
-1.44309e-05
0.00125658
0.00263619
0.0020601
0.00141453
0.00203731
0.00246974
0.00224003
0.00230932
0.00307665
0.00322539
0.00268383
0.00337384
0.00388681
0.00398203
0.00382379
0.0043283
0.00418229
0.00374737
0.00431419
-1.42718e-05
0.00125947
0.00268013
0.00205454
0.00139973
0.00204571
0.00248349
0.00222653
0.0023149
0.0030721
0.0032205
0.00269288
0.00334403
0.00388051
0.0039565
0.00377928
0.00423777
0.00410094
0.00360117
0.00409875
-1.30528e-05
0.00126138
0.00272422
0.00204963
0.00138501
0.00205353
0.0024967
0.00221437
0.00231837
0.00306924
0.00321373
0.00270258
0.00331262
0.00387219
0.00393096
0.00372822
0.00414234
0.00401619
0.0034624
0.00388728
-1.05751e-05
0.00126215
0.00276832
0.00204549
0.00137031
0.00206091
0.00250908
0.0022039
0.00231945
0.003068
0.00320538
0.00271241
0.00328073
0.00386049
0.00390559
0.00367191
0.00404092
0.00392831
0.00333149
0.00368183
-6.61405e-06
0.00126159
0.00281227
0.00204227
0.00135556
0.00206801
0.00252034
0.0021954
0.00231801
0.00306823
0.00319598
0.00272301
0.00324952
0.00384459
0.00387975
0.00361218
0.00393316
0.0038371
0.00320889
0.00348376
-9.22623e-07
0.00125952
0.00285585
0.00204016
0.00134066
0.00207503
0.00253013
0.00218908
0.00231406
0.00306963
0.00318633
0.00274558
0.00321973
0.0038242
0.00385197
0.00355083
0.00381979
0.00374234
0.00309468
0.0032936
6.75065e-06
0.00125573
0.00289884
0.00203937
0.00132545
0.00208227
0.00253816
0.00218498
0.00230787
0.00307148
0.00317714
0.00274637
0.0031914
0.00379994
0.00382047
0.00348861
0.00370282
0.00364397
0.0029889
0.00311203
1.66668e-05
0.00125004
0.00294092
0.00204019
0.00130973
0.00208998
0.0025442
0.00218305
0.00229983
0.00307286
0.00316935
0.00274186
0.00316389
0.00377308
0.00378412
0.00342485
0.00358463
0.00354266
0.00289153
0.00293999
2.91755e-05
0.00124224
0.0029818
0.00204297
0.00129321
0.00209843
0.00254811
0.00218308
0.00229046
0.00307268
0.00316411
0.00273272
0.00313571
0.00374515
0.00374269
0.00335824
0.00346735
0.00344042
0.00280179
0.00277755
4.45565e-05
0.00123216
0.00302107
0.0020481
0.0012756
0.00210788
0.00254993
0.00218466
0.00228065
0.00306958
0.00316186
0.00271963
0.00310482
0.00371704
0.00369706
0.00328725
0.00335159
0.0033405
0.0027194
0.0026238
6.31138e-05
0.00121968
0.00305821
0.00205601
0.00125666
0.00211849
0.00254986
0.00218708
0.00227155
0.00306236
0.00316242
0.00270431
0.0030688
0.00368866
0.00364995
0.00320979
0.00323602
0.00324571
0.00264667
0.00247793
8.51549e-05
0.00120469
0.00309264
0.00206725
0.0012361
0.00213024
0.0025483
0.00218935
0.00226447
0.0030504
0.00316517
0.00268862
0.00302591
0.00365888
0.0036041
0.003126
0.0031173
0.00315581
0.00258775
0.00234133
0.000111018
0.00118711
0.00312371
0.00208243
0.00121362
0.00214294
0.00254607
0.00219026
0.00226051
0.00303369
0.00316841
0.00267469
0.00297585
0.00362535
0.00356114
0.0030394
0.00299285
0.00306736
0.00254561
0.00221919
0.000141031
0.001167
0.00315055
0.0021021
0.00118917
0.00215627
0.0025442
0.00218844
0.00226032
0.00301286
0.00316979
0.00266458
0.00291921
0.00358514
0.00352199
0.00295504
0.00286351
0.0029753
0.00251883
0.0021192
0.000175456
0.00114444
0.00317229
0.00212691
0.00116284
0.00216967
0.00254386
0.00218256
0.00226393
0.00298936
0.00316689
0.00265907
0.0028581
0.00353508
0.00349188
0.00287816
0.00273244
0.00287553
0.002502
0.0020473
0.000214529
0.00111958
0.00318796
0.00215751
0.00113486
0.00218242
0.00254653
0.00217148
0.00227091
0.00296552
0.0031572
0.00265771
0.00279619
0.00347307
0.00346021
0.00281257
0.00260319
0.00276714
0.00248801
0.00200382
0.000258482
0.00109272
0.00319643
0.00219445
0.00110583
0.00219447
0.00255372
0.00215472
0.00227986
0.00294406
0.00313903
0.00265828
0.00273746
0.00339975
0.00342424
0.00275962
0.00248131
0.00265182
0.00246946
0.00198385
0.000307467
0.00106428
0.00319655
0.00223806
0.00107659
0.00220071
0.00256687
0.00213263
0.00228804
0.00292769
0.00311223
0.00265676
0.00268496
0.00331783
0.00337848
0.00271708
0.00237377
0.00253391
0.00244156
0.00197961
0.000361489
0.00103488
0.00318717
0.00228842
0.00104821
0.0022008
0.00258706
0.00210625
0.00229233
0.00291853
0.00307808
0.00264895
0.00264051
0.00322512
0.00332008
0.00268124
0.00228479
0.0024193
0.00240313
0.00198208
0.000420503
0.00100514
0.00316711
0.00234546
0.00102234
0.00219336
0.00261465
0.00207761
0.00228938
0.00291735
0.00303985
0.00263122
0.00260421
0.00313966
0.00325037
0.0026443
0.00221267
0.00231523
0.00235732
0.00198473
0.000484389
0.000975846
0.00313537
0.00240878
0.0010009
0.00217669
0.00264958
0.00204955
0.00227559
0.00292354
0.00300251
0.00260117
0.00258719
0.0030637
0.00317236
0.00259928
0.00215307
0.00222773
0.00231049
0.00198632
0.000552828
0.000947995
0.00309122
0.00247737
0.000986046
0.00214937
0.00269096
0.00202565
0.00224833
0.00293463
0.00297178
0.00255728
0.00255338
0.0030009
0.00309233
0.00254381
0.00209957
0.00215729
0.00226898
0.0019902
0.000625311
0.000922666
0.00303416
0.00254985
0.000980284
0.00211044
0.00273672
0.00200983
0.00220655
0.00294614
0.00295277
0.00250116
0.00251046
0.00295065
0.00302061
0.00248066
0.00204312
0.0020997
0.0022379
0.00200042
0.000701186
0.000900949
0.00296418
0.00262435
0.000985895
0.00205949
0.00278379
0.00200605
0.00215045
0.00295212
0.00294868
0.0024384
0.00245206
0.00290947
0.00296605
0.00241583
0.00197624
0.00204801
0.00221935
0.00201952
0.000779607
0.000884056
0.00288172
0.00269859
0.00100369
0.00198905
0.00282836
0.00201756
0.0020814
0.00294568
0.00296033
0.00237733
0.00237498
0.00286928
0.00293211
0.0023582
0.00189788
0.0019907
0.00221087
0.00205023
0.000859588
0.000873212
0.00278772
0.00276973
0.00103897
0.00191533
0.00286601
0.00204598
0.00200336
0.00292102
0.00298628
0.00232768
0.00228019
0.0028193
0.00291633
0.00231952
0.00181509
0.00191562
0.00220448
0.00209641
0.000940081
0.000869502
0.0026838
0.00283455
0.00109248
0.00183385
0.00289217
0.00209193
0.00190115
0.00287363
0.00302162
0.00229829
0.00217193
0.00274956
0.00291315
0.00230872
0.0017386
0.00181774
0.00218477
0.00215755
0.00101994
0.000874085
0.00257202
0.00288965
0.00116389
0.00174847
0.00290133
0.00215548
0.00182932
0.00280132
0.0030584
0.00229493
0.00205812
0.00265417
0.00291317
0.00232792
0.00168149
0.00170388
0.00213386
0.00222358
0.00109798
0.000887903
0.00245496
0.0029317
0.00125267
0.00166402
0.0028902
0.00223401
0.00176942
0.00270388
0.00308721
0.00231986
0.00195108
0.00253226
0.00290352
0.00237258
0.00165614
0.00158887
0.00204218
0.00227374
0.00117316
0.000911403
0.0023358
0.00295807
0.00135804
0.00158588
0.00285625
0.00232254
0.00172842
0.00258449
0.00309764
0.002371
0.00186407
0.00238844
0.00287121
0.00243491
0.00166917
0.00148924
0.00191629
0.00228169
0.00124451
0.000944754
0.00221806
0.00296656
0.00150346
0.00151916
0.00279929
0.002413
0.0017116
0.00244925
0.00308139
0.00244176
0.00180891
0.00223108
0.00280672
0.00250271
0.00171974
0.00142048
0.00177622
0.00223044
0.00131125
0.000987561
0.00210523
0.00295485
0.00162598
0.00146826
0.0027199
0.00249581
0.00172205
0.00230893
0.00303358
0.00252114
0.00179248
0.00207318
0.00270644
0.00256054
0.00180163
0.00139143
0.00164398
0.00212464
0.00137282
0.00103882
0.00200062
0.00292235
0.00175093
0.00143725
0.00262074
0.00256474
0.00175976
0.00217526
0.00295309
0.0025957
0.00181492
0.00193132
0.0025744
0.00259354
0.00190578
0.00140355
0.00153857
0.0019891
0.00142882
0.00109731
0.00190724
0.00286976
0.00187279
0.00142818
0.00250799
0.00261344
0.00182185
0.00205874
0.00284332
0.00265265
0.00187204
0.00182084
0.00242094
0.00259047
0.00201809
0.00145356
0.00146963
0.00185238
0.00147913
0.00116137
0.00182742
0.0027991
0.00198588
0.00144167
0.00237912
0.0026382
0.00190198
0.00195938
0.00271094
0.00268225
0.00195401
0.00175135
0.00226042
0.00254662
0.0021216
0.00153603
0.00143852
0.00173705
0.00152388
0.00122893
0.00176266
0.00271382
0.00208508
0.00147756
0.00226638
0.00263751
0.00198903
0.00189772
0.00256688
0.00267952
0.00204646
0.00172534
0.00211018
0.00246588
0.00220017
0.00164187
0.00144338
0.00165323
0.00156335
0.00129789
0.00171365
0.00261852
0.00216653
0.00153301
0.00216261
0.00261062
0.00207468
0.00186604
0.00242395
0.00264445
0.00213419
0.00173841
0.0019861
0.00235976
0.00224261
0.00175652
0.0014814
0.00160127
0.00159799
0.00136623
0.00168022
0.00251829
0.00222783
0.00160313
0.00207348
0.00256031
0.00215084
0.0018681
0.00229423
0.00258154
0.00220504
0.00178225
0.00189798
0.00224359
0.00224604
0.00186285
0.00154769
0.001579
0.0016284
0.00143222
0.00166148
0.00241802
0.00226794
0.00168189
0.00200289
0.00249242
0.00221025
0.00188989
0.00218598
0.00249839
0.00225177
0.00184456
0.00184779
0.0021336
0.00221654
0.00194646
0.00163242
0.00158486
0.00165521
0.00149441
0.00165588
0.0023222
0.00228745
0.00176274
0.00195265
0.00241426
0.00224925
0.00192685
0.00210367
0.00240506
0.00227213
0.00191198
0.00183127
0.0020424
0.00216619
0.00200012
0.00172184
0.00161658
0.00167908
0.00155176
0.00166131
0.00223447
0.00228832
0.00183965
0.00192252
0.00233353
0.00226719
0.0019706
0.00204788
0.00231211
0.0022682
0.00197357
0.00184147
0.00197645
0.0021082
0.00202498
0.00180277
0.00166793
0.00170063
0.00160364
0.00167534
0.00215714
0.00227371
0.00190818
0.00191033
0.00225686
0.00226566
0.00201348
0.00201599
0.00222841
0.00224537
0.00202236
0.00186919
0.00193639
0.00205386
0.00202814
0.00186697
0.00172924
0.00172042
0.00164979
0.00169551
0.00209263
0.00224747
0.0019636
0.00191251
0.00218913
0.00224836
0.00204969
0.00200369
0.00215968
0.00221063
0.0020554
0.00190502
0.00191938
0.00201059
0.00201877
0.00191243
0.00179066
0.00173889
0.00169032
0.00171945
0.00204043
0.00221353
0.00200601
0.00192481
0.00213327
0.0022203
0.00207612
0.00200508
0.00210803
0.00217134
0.00207321
0.00194139
0.00192056
0.00198165
0.00200518
0.00194193
0.00184532
0.00175637
0.0017256
0.00174513
0.00200003
0.00217575
0.00203531
0.00194282
0.00209027
0.0021868
0.0020919
0.00201396
0.00207258
0.0021337
0.00207889
0.00197339
0.00193386
0.00196731
0.00199347
0.00196043
0.00189037
0.00177303
0.00175506
0.00177079
0.00197036
0.00213755
0.00205247
0.00196286
0.00205952
0.00215249
0.00209791
0.0020254
0.00205105
0.00210187
0.00207669
0.00199883
0.00195363
0.00196568
0.00198731
0.00197312
0.00192628
0.00178899
0.00178132
0.00179525
0.00194986
0.00210155
0.00205925
0.00198102
0.00203938
0.00212087
0.00209627
0.00203622
0.00204037
0.00207778
0.0020707
0.00201762
0.00197547
0.00197362
0.00198808
0.00198413
0.00195528
0.00180432
0.00180391
0.00181769
0.00193677
0.00206943
0.00205811
0.00199596
0.00202755
0.00209404
0.00208958
0.00204472
0.00203717
0.00206177
0.00206417
0.00203105
0.00199666
0.00198776
0.00199549
0.00199617
0.00198002
0.001819
0.00182334
0.00183769
0.00192925
0.002042
0.00205165
0.00200684
0.00202152
0.0020728
0.00208036
0.00205037
0.00203849
0.00205298
0.00205932
0.00204095
0.00201595
0.00200524
0.00200825
0.00201055
0.00200278
0.00183292
0.00184014
0.00185514
0.00192571
0.00201949
0.00204206
0.00201359
0.00201907
0.002057
0.00207068
0.00205349
0.00204216
0.00204997
0.0020573
0.0020491
0.00203316
0.002024
0.0020247
0.00202749
0.00202506
0.00184598
0.00185471
0.00186998
0.00192496
0.00200175
0.00203117
0.00201666
0.00201846
0.00204597
0.00206198
0.00205484
0.00204677
0.00205113
0.00205834
0.00205684
0.00204863
0.00204282
0.00204329
0.00204654
0.00204757
0.0018581
0.00186733
0.00188246
0.0019259
0.00198827
0.00202031
0.00201686
0.00201852
0.00203877
0.00205501
0.00205523
0.00205153
0.002055
0.00206209
0.00206495
0.00206292
0.00206107
0.00206279
0.00206692
0.00207043
0.00186916
0.00187828
0.00189287
0.00192775
0.0019783
0.0020103
0.00201507
0.00201859
0.00203437
0.00204999
0.00205534
0.00205611
0.00206043
0.00206789
0.00207374
0.00207645
0.00207849
0.00208231
0.00208782
0.00209337
0.0018791
0.00188772
0.00190147
0.00192999
0.00197112
0.00200159
0.00201209
0.00201832
0.00203183
0.00204677
0.00205562
0.00206043
0.00206657
0.00207498
0.0020831
0.00208945
0.00209499
0.00210123
0.00210848
0.00211593
0.00188785
0.00189577
0.00190846
0.00193223
0.00196606
0.00199429
0.00200852
0.00201758
0.00203042
0.00204498
0.00205625
0.00206445
0.00207283
0.00208265
0.00209272
0.00210191
0.00211045
0.00211913
0.00212828
0.00213756
0.00189537
0.00190251
0.00191406
0.00193422
0.00196245
0.00198828
0.00200474
0.00201637
0.00202956
0.00204418
0.00205719
0.00206812
0.00207877
0.00209024
0.0021021
0.00211361
0.00212467
0.00213561
0.00214668
0.00215771
0.00190163
0.00190798
0.00191839
0.00193576
0.00195977
0.00198335
0.002001
0.00201471
0.00202876
0.00204382
0.00205821
0.00207132
0.00208405
0.00209722
0.00211075
0.0021242
0.00213735
0.00215031
0.00216316
0.00217584
0.00190661
0.00191221
0.00192152
0.00193672
0.00195757
0.0019792
0.00199735
0.00201262
0.0020277
0.00204342
0.00205894
0.00207375
0.00208828
0.00210306
0.00211811
0.00213318
0.00214806
0.00216273
0.00217717
0.00219133
0.00191028
0.00191516
0.00192347
0.001937
0.00195549
0.00197547
0.00199372
0.00201011
0.00202619
0.00204262
0.00205904
0.00207514
0.00209111
0.00210726
0.00212364
0.00214005
0.0021563
0.00217231
0.00218804
0.00220343
0.00191263
0.00191686
0.00192422
0.00193644
0.0019532
0.00197183
0.00198994
0.0020071
0.00202406
0.00204119
0.00205836
0.00207542
0.00209251
0.00210979
0.00212727
0.00214479
0.00216215
0.00217921
0.00219589
0.00221213
0.00191348
0.00191723
0.00192399
0.00193535
0.00195092
0.00196853
0.00198639
0.00200409
0.00202177
0.00203947
0.00205716
0.00207487
0.00209273
0.00211081
0.00212907
0.00214737
0.00216555
0.00218346
0.002201
0.00221806
0.00191229
0.00191452
0.00192009
0.00193052
0.00194466
0.00196078
0.00197782
0.00199527
0.00201278
0.00203023
0.0020477
0.00206535
0.0020833
0.00210154
0.00211999
0.00213848
0.00215684
0.00217495
0.00219273
0.00221007
0.00992437
0.00567674
-0.000767115
-0.00564751
-0.00702837
-0.00619612
-0.00485018
-0.00382629
-0.00339475
-0.00318518
-0.00276787
-0.00239965
-0.00229338
-0.00205866
-0.00166655
-0.00149403
-0.00142066
-0.00120122
-0.000977403
-0.000828889
-0.000653127
-0.000417756
-0.00013042
0.000171245
0.0004382
0.000718277
0.0010435
0.00133997
0.00159415
0.00187957
0.00219441
0.00247744
0.00273164
0.0029975
0.00327463
0.00354154
0.00379793
0.00405412
0.00431131
0.00456601
0.00481813
0.00506933
0.00532022
0.00557074
0.00582111
0.00607186
0.00632343
0.00657622
0.00683068
0.00708727
0.00734633
0.00760819
0.00787316
0.0081415
0.00841345
0.00868921
0.00896899
0.009253
0.00954139
0.00983435
0.0101321
0.0104347
0.0107423
0.0110552
0.0113734
0.0116971
0.0120265
0.0123616
0.0127026
0.0130497
0.013403
0.0137626
0.0141287
0.0145013
0.0148808
0.0152669
0.0156603
0.0160605
0.0164684
0.016883
0.0173063
0.0177357
0.0181752
0.0186199
0.0190759
0.0195369
0.0200092
0.0204889
0.0209762
0.0214771
0.0219792
0.0225013
0.0230231
0.0235614
0.0241124
0.0246648
0.0252496
0.0258305
0.0264418
0.0270993
0.00938233
0.00556755
-0.000668208
-0.00551343
-0.0069484
-0.00615575
-0.00482423
-0.00380781
-0.00338171
-0.00317582
-0.00275986
-0.00239221
-0.00228754
-0.00205397
-0.00166192
-0.00148999
-0.00141761
-0.00119853
-0.000974934
-0.000826917
-0.000651576
-0.000416541
-0.000129481
0.00017203
0.000438785
0.000718653
0.00104384
0.00134029
0.00159434
0.00187966
0.0021945
0.00247753
0.00273169
0.00299752
0.00327464
0.00354155
0.00379793
0.00405411
0.00431131
0.00456601
0.00481813
0.00506933
0.00532022
0.00557073
0.00582111
0.00607186
0.00632342
0.00657621
0.00683068
0.00708726
0.00734633
0.00760819
0.00787316
0.0081415
0.00841345
0.00868921
0.00896899
0.009253
0.00954139
0.00983435
0.0101321
0.0104347
0.0107423
0.0110552
0.0113734
0.0116971
0.0120265
0.0123616
0.0127026
0.0130497
0.013403
0.0137626
0.0141287
0.0145013
0.0148808
0.0152669
0.0156603
0.0160605
0.0164684
0.016883
0.0173063
0.0177357
0.0181752
0.0186199
0.0190759
0.0195369
0.0200092
0.0204889
0.0209762
0.0214771
0.0219792
0.0225013
0.0230231
0.0235614
0.0241124
0.0246648
0.0252496
0.0258305
0.0264418
0.0270994
0.00881629
0.00546001
-0.000454686
-0.00524886
-0.00680925
-0.00610357
-0.00479759
-0.00378708
-0.00336474
-0.00316274
-0.00274959
-0.00238366
-0.00228068
-0.00204821
-0.00165655
-0.00148547
-0.00141405
-0.00119527
-0.000972029
-0.000824584
-0.000649628
-0.000414917
-0.00012817
0.000173116
0.000439584
0.000719194
0.00104432
0.00134073
0.00159462
0.00187984
0.00219468
0.00247767
0.00273176
0.00299757
0.00327469
0.00354159
0.00379795
0.00405412
0.00431132
0.00456602
0.00481813
0.00506933
0.00532022
0.00557073
0.00582111
0.00607186
0.00632342
0.00657621
0.00683068
0.00708727
0.00734633
0.00760819
0.00787316
0.0081415
0.00841345
0.00868921
0.00896899
0.009253
0.00954139
0.00983435
0.0101321
0.0104347
0.0107423
0.0110552
0.0113734
0.0116971
0.0120265
0.0123616
0.0127026
0.0130497
0.013403
0.0137626
0.0141287
0.0145013
0.0148808
0.0152669
0.0156603
0.0160605
0.0164684
0.016883
0.0173063
0.0177357
0.0181752
0.0186199
0.0190759
0.0195369
0.0200092
0.0204889
0.0209762
0.0214771
0.0219792
0.0225013
0.0230231
0.0235614
0.0241124
0.0246648
0.0252496
0.0258305
0.0264418
0.0270996
0.0082924
0.00537133
-0.000180122
-0.00491163
-0.00662126
-0.00603293
-0.0047606
-0.00375743
-0.00333931
-0.00314198
-0.00273426
-0.00237194
-0.00227039
-0.00203921
-0.00164907
-0.00147904
-0.0014081
-0.0011898
-0.000967343
-0.000820522
-0.00064589
-0.000411643
-0.000125485
0.00017531
0.000441281
0.000720423
0.00104528
0.00134154
0.00159529
0.00188036
0.00219506
0.00247793
0.00273196
0.00299774
0.00327482
0.00354167
0.003798
0.00405416
0.00431134
0.00456604
0.00481814
0.00506934
0.00532022
0.00557074
0.00582111
0.00607186
0.00632343
0.00657622
0.00683068
0.00708727
0.00734633
0.00760819
0.00787317
0.0081415
0.00841345
0.00868921
0.00896899
0.009253
0.00954139
0.00983435
0.0101321
0.0104347
0.0107423
0.0110552
0.0113734
0.0116971
0.0120265
0.0123616
0.0127026
0.0130497
0.013403
0.0137626
0.0141287
0.0145013
0.0148808
0.0152669
0.0156603
0.0160605
0.0164684
0.016883
0.0173063
0.0177357
0.0181752
0.0186199
0.0190759
0.0195369
0.0200092
0.0204889
0.0209762
0.0214771
0.0219792
0.0225013
0.0230231
0.0235614
0.0241124
0.0246648
0.0252496
0.0258305
0.0264418
0.0270998
0.0077932
0.00526169
9.70326e-05
-0.00455501
-0.00641459
-0.00595392
-0.00471872
-0.00372193
-0.00330615
-0.00311286
-0.00271293
-0.00235601
-0.00225517
-0.00202562
-0.0016388
-0.00147002
-0.00139877
-0.00118116
-0.00096
-0.000813723
-0.000639226
-0.000405614
-0.000120476
0.000179449
0.000444674
0.000722997
0.00104716
0.0013431
0.00159673
0.00188155
0.00219584
0.00247845
0.00273241
0.00299815
0.00327512
0.00354186
0.00379813
0.00405427
0.00431141
0.00456609
0.00481817
0.00506936
0.00532024
0.00557075
0.00582112
0.00607187
0.00632343
0.00657622
0.00683069
0.00708727
0.00734633
0.0076082
0.00787317
0.00814151
0.00841345
0.00868922
0.008969
0.009253
0.00954139
0.00983435
0.0101321
0.0104347
0.0107423
0.0110552
0.0113734
0.0116971
0.0120265
0.0123616
0.0127026
0.0130497
0.013403
0.0137626
0.0141287
0.0145013
0.0148808
0.0152669
0.0156603
0.0160605
0.0164684
0.016883
0.0173063
0.0177357
0.0181752
0.0186199
0.0190759
0.0195369
0.0200092
0.0204889
0.0209762
0.0214771
0.0219792
0.0225013
0.0230231
0.0235614
0.0241124
0.0246648
0.0252496
0.0258305
0.0264418
0.0271
0.00730225
0.00511016
0.00036187
-0.00418811
-0.00619397
-0.00586959
-0.00467604
-0.00368445
-0.00326879
-0.00307863
-0.00268757
-0.00233666
-0.00223546
-0.0020078
-0.0016259
-0.00145843
-0.00138605
-0.00116931
-0.000949855
-0.000803902
-0.000629232
-0.000396367
-0.000112718
0.000185925
0.000450201
0.000727341
0.00105028
0.00134568
0.00159925
0.00188368
0.00219724
0.00247939
0.00273328
0.00299895
0.0032757
0.00354223
0.00379842
0.0040545
0.00431158
0.0045662
0.00481824
0.0050694
0.00532027
0.00557077
0.00582113
0.00607188
0.00632344
0.00657622
0.00683069
0.00708727
0.00734633
0.0076082
0.00787317
0.00814151
0.00841345
0.00868922
0.008969
0.009253
0.0095414
0.00983435
0.0101321
0.0104347
0.0107423
0.0110552
0.0113734
0.0116971
0.0120265
0.0123616
0.0127026
0.0130497
0.013403
0.0137626
0.0141287
0.0145013
0.0148808
0.0152669
0.0156603
0.0160605
0.0164684
0.016883
0.0173063
0.0177357
0.0181752
0.0186199
0.0190759
0.0195369
0.0200092
0.0204889
0.0209762
0.0214771
0.0219792
0.0225013
0.0230231
0.0235614
0.0241124
0.0246648
0.0252496
0.0258305
0.0264418
0.0271003
0.00681851
0.00492202
0.000616854
-0.0038086
-0.00595776
-0.00577973
-0.00463369
-0.00364636
-0.00322891
-0.00304139
-0.0026597
-0.00231497
-0.00221279
-0.00198712
-0.00161103
-0.00144487
-0.00137086
-0.00115509
-0.000937505
-0.000791569
-0.000616353
-0.000384225
-0.000102418
0.000194615
0.000457815
0.000733474
0.00105468
0.00134934
0.00160293
0.00188685
0.00219934
0.00248083
0.00273463
0.00300019
0.00327662
0.00354286
0.00379891
0.0040549
0.00431188
0.0045664
0.00481838
0.0050695
0.00532033
0.00557079
0.00582115
0.00607189
0.00632345
0.00657623
0.0068307
0.00708728
0.00734634
0.0076082
0.00787317
0.00814151
0.00841346
0.00868922
0.008969
0.009253
0.0095414
0.00983436
0.0101321
0.0104347
0.0107423
0.0110552
0.0113734
0.0116971
0.0120265
0.0123616
0.0127026
0.0130497
0.013403
0.0137626
0.0141287
0.0145013
0.0148808
0.0152669
0.0156603
0.0160605
0.0164684
0.016883
0.0173063
0.0177357
0.0181752
0.0186199
0.0190759
0.0195369
0.0200092
0.0204889
0.0209762
0.0214771
0.0219792
0.0225013
0.0230231
0.0235614
0.0241124
0.0246648
0.0252496
0.0258304
0.0264417
0.0271006
0.00635389
0.00470873
0.000861295
-0.00341903
-0.00570669
-0.00568405
-0.00459174
-0.00360814
-0.00318706
-0.00300163
-0.00262965
-0.00229155
-0.00218832
-0.00196456
-0.00159464
-0.0014299
-0.00135407
-0.00113933
-0.00092371
-0.000777576
-0.000601506
-0.000370023
-9.02383e-05
0.000204977
0.000467026
0.000741015
0.00106015
0.00135392
0.00160761
0.00189092
0.00220207
0.00248275
0.00273645
0.00300188
0.00327788
0.00354375
0.00379961
0.00405548
0.00431232
0.00456672
0.00481861
0.00506966
0.00532043
0.00557086
0.00582119
0.00607191
0.00632346
0.00657624
0.0068307
0.00708729
0.00734634
0.00760821
0.00787318
0.00814151
0.00841346
0.00868922
0.008969
0.009253
0.0095414
0.00983436
0.0101321
0.0104347
0.0107423
0.0110552
0.0113734
0.0116971
0.0120265
0.0123616
0.0127026
0.0130497
0.013403
0.0137626
0.0141287
0.0145013
0.0148808
0.0152669
0.0156603
0.0160605
0.0164684
0.016883
0.0173063
0.0177357
0.0181752
0.0186199
0.0190759
0.0195369
0.0200092
0.0204889
0.0209762
0.0214771
0.0219792
0.0225013
0.0230231
0.0235614
0.0241124
0.0246648
0.0252496
0.0258304
0.0264417
0.0271009
0.00592052
0.00447628
0.00108643
-0.00302552
-0.0054407
-0.00558032
-0.00454924
-0.00357018
-0.00314368
-0.00295944
-0.00259754
-0.00226676
-0.00216257
-0.00194055
-0.00157698
-0.00141387
-0.00133617
-0.00112247
-0.000908926
-0.00076254
-0.00058544
-0.0003545
-7.68027e-05
0.000216474
0.000477305
0.00074951
0.00106638
0.00135918
0.001613
0.00189566
0.00220529
0.00248505
0.00273864
0.00300391
0.00327943
0.00354486
0.00380051
0.00405623
0.0043129
0.00456714
0.00481891
0.00506988
0.00532058
0.00557095
0.00582125
0.00607195
0.00632348
0.00657626
0.00683072
0.0070873
0.00734635
0.00760822
0.00787319
0.00814152
0.00841347
0.00868923
0.00896901
0.00925301
0.0095414
0.00983436
0.0101321
0.0104347
0.0107423
0.0110552
0.0113734
0.0116971
0.0120265
0.0123616
0.0127026
0.0130497
0.013403
0.0137626
0.0141287
0.0145013
0.0148808
0.0152669
0.0156603
0.0160605
0.0164684
0.016883
0.0173063
0.0177357
0.0181752
0.0186199
0.0190759
0.0195369
0.0200092
0.0204889
0.0209762
0.0214771
0.0219792
0.0225013
0.0230231
0.0235614
0.0241124
0.0246648
0.0252496
0.0258303
0.0264416
0.0271013
0.00552557
0.00422665
0.00128345
-0.00263145
-0.00515736
-0.00546577
-0.00450582
-0.00353352
-0.00309952
-0.00291503
-0.00256339
-0.0022406
-0.00213558
-0.00191517
-0.00155819
-0.00139696
-0.00131734
-0.00110468
-0.000893337
-0.000746748
-0.000568542
-0.000338073
-6.24846e-05
0.000228769
0.000488316
0.00075866
0.00107314
0.0013649
0.00161889
0.00190087
0.00220888
0.00248762
0.0027411
0.00300619
0.00328119
0.00354615
0.00380155
0.0040571
0.00431358
0.00456765
0.00481929
0.00507015
0.00532077
0.00557108
0.00582134
0.006072
0.00632351
0.00657628
0.00683073
0.00708731
0.00734636
0.00760822
0.00787319
0.00814153
0.00841347
0.00868923
0.00896901
0.00925301
0.00954141
0.00983436
0.0101321
0.0104347
0.0107423
0.0110552
0.0113734
0.0116971
0.0120265
0.0123616
0.0127026
0.0130497
0.013403
0.0137626
0.0141287
0.0145013
0.0148808
0.0152669
0.0156603
0.0160605
0.0164684
0.016883
0.0173063
0.0177357
0.0181752
0.0186199
0.0190759
0.0195369
0.0200092
0.0204889
0.0209762
0.0214771
0.0219792
0.0225013
0.0230231
0.0235614
0.0241124
0.0246648
0.0252495
0.0258302
0.0264415
0.0271016
0.00517127
0.00396387
0.00144845
-0.00223849
-0.00485594
-0.00533927
-0.00446153
-0.00349891
-0.00305514
-0.00286839
-0.00252694
-0.00221283
-0.00210729
-0.0018885
-0.0015383
-0.00137918
-0.00129763
-0.00108599
-0.000876992
-0.000730286
-0.000550941
-0.000320902
-4.74462e-05
0.000241712
0.000499911
0.000768331
0.00108033
0.001371
0.00162515
0.00190643
0.00221275
0.00249041
0.00274375
0.00300867
0.00328311
0.00354756
0.0038027
0.00405807
0.00431435
0.00456822
0.00481972
0.00507047
0.005321
0.00557124
0.00582144
0.00607207
0.00632356
0.0065763
0.00683075
0.00708733
0.00734638
0.00760824
0.0078732
0.00814154
0.00841348
0.00868924
0.00896902
0.00925302
0.00954141
0.00983437
0.0101321
0.0104347
0.0107423
0.0110552
0.0113734
0.0116971
0.0120265
0.0123616
0.0127026
0.0130497
0.013403
0.0137626
0.0141287
0.0145013