/*--------------------------------*- C++ -*----------------------------------*\
| =========                 |                                                 |
| \\      /  F ield         | OpenFOAM: The Open Source CFD Toolbox           |
|  \\    /   O peration     | Version:  2106                                  |
|   \\  /    A nd           | Website:  www.openfoam.com                      |
|    \\/     M anipulation  |                                                 |
\*---------------------------------------------------------------------------*/
FoamFile
{
    version     2.0;
    format      ascii;
    arch        "LSB;label=32;scalar=64";
    class       volVectorField;
    location    "0.135";
    object      U;
}
// * * * * * * * * * * * * * * * * * * * * * * * * * * * * * * * * * * * * * //

dimensions      [0 1 -1 0 0 0 0];

internalField   nonuniform List<vector> 
9600
(
(0.875389 7.40903e-05 0)
(1.1365 -0.013346 0)
(0.896035 -0.00320732 0)
(1.12599 0.00871452 0)
(0.886793 0.00941051 0)
(1.11961 -0.00341006 0)
(0.89191 -0.00823828 0)
(1.1204 -0.00285185 0)
(0.894727 0.00422154 0)
(1.10493 0.00564623 0)
(0.88128 0.0059505 0)
(1.11339 -0.000289245 0)
(0.896745 -0.00742753 0)
(1.0823 -0.009602 0)
(0.895123 -0.00174633 0)
(1.11584 -0.00882246 0)
(0.856286 0.00465129 0)
(1.12204 0.00166052 0)
(0.833917 0.00626331 0)
(1.1088 0.00770581 0)
(0.886969 -7.00362e-05 0)
(1.12106 -0.0133395 0)
(0.901564 -0.00332683 0)
(1.11679 0.00891119 0)
(0.902093 0.00933382 0)
(1.10263 -0.00330516 0)
(0.908924 -0.00844784 0)
(1.10419 -0.00266097 0)
(0.913196 0.004215 0)
(1.08403 0.00601851 0)
(0.911288 0.0056038 0)
(1.08066 -0.000393277 0)
(0.936831 -0.00699878 0)
(1.04693 -0.00932267 0)
(0.93776 -0.00283445 0)
(1.06602 -0.00779521 0)
(0.919975 0.00450506 0)
(1.04523 0.00214783 0)
(0.934879 0.00806846 0)
(0.990413 0.00613885 0)
(0.906626 -0.000173575 0)
(1.09714 -0.0133079 0)
(0.91522 -0.00345121 0)
(1.09694 0.00905813 0)
(0.929091 0.00932368 0)
(1.07762 -0.00323995 0)
(0.936346 -0.00859008 0)
(1.07584 -0.00256623 0)
(0.943795 0.00434489 0)
(1.05302 0.00615203 0)
(0.950646 0.00551179 0)
(1.04449 -0.000625446 0)
(0.976081 -0.00650051 0)
(1.01459 -0.00938387 0)
(0.974451 -0.00314886 0)
(1.02611 -0.00744029 0)
(0.96854 0.004869 0)
(1.00464 0.00200517 0)
(0.978209 0.00867434 0)
(0.975587 0.00672068 0)
(0.930647 -0.000220655 0)
(1.06822 -0.0132731 0)
(0.934726 -0.00356388 0)
(1.07145 0.00902714 0)
(0.959556 0.00940522 0)
(1.05226 -0.00322815 0)
(0.963798 -0.00861401 0)
(1.04581 -0.00257986 0)
(0.9725 0.00454981 0)
(1.02767 0.00608909 0)
(0.980726 0.00558156 0)
(1.02204 -0.000923877 0)
(0.996862 -0.00608275 0)
(1.00061 -0.00929782 0)
(0.989718 -0.00327361 0)
(1.00829 -0.0074374 0)
(0.987599 0.00538295 0)
(0.996387 0.00187829 0)
(0.988748 0.00899215 0)
(0.984563 0.00778255 0)
(0.954803 -0.000215016 0)
(1.03987 -0.0132447 0)
(0.954889 -0.00368521 0)
(1.04738 0.00886086 0)
(0.986021 0.00951903 0)
(1.03252 -0.00321049 0)
(0.983361 -0.00854596 0)
(1.02272 -0.00264777 0)
(0.991304 0.00470672 0)
(1.01427 0.00598931 0)
(0.997814 0.00562129 0)
(1.01302 -0.00109252 0)
(1.00386 -0.00574193 0)
(0.997406 -0.00912258 0)
(0.993924 -0.00336857 0)
(1.00074 -0.0074331 0)
(0.992722 0.005616 0)
(0.996457 0.00192574 0)
(0.992092 0.00926633 0)
(0.990147 0.00853684 0)
(0.975334 -0.000166944 0)
(1.01724 -0.0132126 0)
(0.970995 -0.00383033 0)
(1.02927 0.00861878 0)
(1.00437 0.00961892 0)
(1.02025 -0.00313155 0)
(0.993547 -0.00842165 0)
(1.00865 -0.00272759 0)
(1.00042 0.00475076 0)
(1.00957 0.00588557 0)
(1.00599 0.00562757 0)
(1.01061 -0.00111305 0)
(1.00519 -0.00544691 0)
(0.996819 -0.00894377 0)
(0.994966 -0.00335342 0)
(0.996627 -0.00740337 0)
(0.993073 0.00557166 0)
(0.997071 0.00213716 0)
(0.994098 0.00924458 0)
(0.993045 0.00908916 0)
(0.990175 -9.68336e-05 0)
(1.00289 -0.013159 0)
(0.980917 -0.00400086 0)
(1.01744 0.00833792 0)
(1.0141 0.00968335 0)
(1.01379 -0.00297836 0)
(0.997153 -0.00826023 0)
(1.00115 -0.00281435 0)
(1.00331 0.00468516 0)
(1.00812 0.00576742 0)
(1.00919 0.00562536 0)
(1.00999 -0.00104747 0)
(1.00488 -0.00514936 0)
(0.996313 -0.00875778 0)
(0.995054 -0.00326984 0)
(0.994098 -0.00734978 0)
(0.991956 0.00540344 0)
(0.996832 0.00235234 0)
(0.995185 0.00898656 0)
(0.994472 0.00961972 0)
(0.999264 -2.78112e-05 0)
(0.996255 -0.0130712 0)
(0.985188 -0.00417849 0)
(1.00963 0.00804346 0)
(1.01696 0.00970568 0)
(1.0105 -0.00277538 0)
(0.997618 -0.00807049 0)
(0.997108 -0.00290547 0)
(1.0029 0.00455204 0)
(1.00669 0.00562747 0)
(1.00944 0.00561393 0)
(1.00927 -0.000941802 0)
(1.00421 -0.00483533 0)
(0.995783 -0.0085646 0)
(0.994706 -0.00316983 0)
(0.992454 -0.00723264 0)
(0.990551 0.00516294 0)
(0.995716 0.0025382 0)
(0.995213 0.00863772 0)
(0.994657 0.0101673 0)
(1.00389 2.36371e-05 0)
(0.994822 -0.0129465 0)
(0.985763 -0.0043283 0)
(1.00358 0.00775336 0)
(1.01547 0.00968179 0)
(1.00853 -0.00256228 0)
(0.997141 -0.00785848 0)
(0.994682 -0.00298491 0)
(1.00091 0.00439438 0)
(1.00445 0.0054679 0)
(1.00793 0.00558446 0)
(1.00812 -0.000830802 0)
(1.0035 -0.00452706 0)
(0.995412 -0.00835719 0)
(0.994215 -0.00306106 0)
(0.991361 -0.00704111 0)
(0.989212 0.00486099 0)
(0.994137 0.00274748 0)
(0.994332 0.00823966 0)
(0.993888 0.0106789 0)
(1.00576 5.17991e-05 0)
(0.995856 -0.0127901 0)
(0.984683 -0.00442135 0)
(0.998373 0.0074772 0)
(1.01202 0.00960698 0)
(1.00706 -0.00237263 0)
(0.996639 -0.0076299 0)
(0.99313 -0.00303806 0)
(0.998453 0.00423986 0)
(1.00181 0.00529568 0)
(1.00566 0.00552805 0)
(1.00677 -0.000742155 0)
(1.00288 -0.00424213 0)
(0.99524 -0.00812439 0)
(0.993762 -0.00295747 0)
(0.990709 -0.00677662 0)
(0.98808 0.00452907 0)
(0.992545 0.0030152 0)
(0.993013 0.00780232 0)
(0.992628 0.0111054 0)
(1.00624 5.93255e-05 0)
(0.997455 -0.0126092 0)
(0.983332 -0.00444728 0)
(0.994112 0.00721873 0)
(1.0084 0.00948199 0)
(1.00588 -0.00222184 0)
(0.996324 -0.00739091 0)
(0.992198 -0.00305806 0)
(0.99626 0.00410142 0)
(0.999458 0.00511619 0)
(1.00348 0.00544015 0)
(1.00553 -0.000685673 0)
(1.00237 -0.00398714 0)
(0.995211 -0.0078651 0)
(0.993427 -0.00286936 0)
(0.990418 -0.00644374 0)
(0.98728 0.00419065 0)
(0.991257 0.00333704 0)
(0.991782 0.00735587 0)
(0.99137 0.0114244 0)
(1.00618 5.29909e-05 0)
(0.998739 -0.0124109 0)
(0.982345 -0.00441466 0)
(0.99108 0.00697637 0)
(1.00555 0.0093138 0)
(1.00498 -0.00210904 0)
(0.996164 -0.00714617 0)
(0.991736 -0.00304733 0)
(0.994711 0.00397971 0)
(0.997764 0.00493196 0)
(1.00182 0.00532392 0)
(1.00458 -0.000654916 0)
(1.00197 -0.00376599 0)
(0.995252 -0.00757507 0)
(0.993225 -0.00280118 0)
(0.990383 -0.00604899 0)
(0.98687 0.00384734 0)
(0.990406 0.00369205 0)
(0.990964 0.00694294 0)
(0.990452 0.0116269 0)
(1.00599 3.98193e-05 0)
(0.999521 -0.0122017 0)
(0.981844 -0.00433878 0)
(0.989271 0.00674522 0)
(1.00369 0.00911326 0)
(1.00434 -0.00202452 0)
(0.996092 -0.00689808 0)
(0.991599 -0.00301292 0)
(0.993838 0.00386822 0)
(0.996762 0.00474571 0)
(1.00078 0.00518473 0)
(1.00392 -0.000636234 0)
(1.00167 -0.00357696 0)
(0.995312 -0.00725096 0)
(0.993137 -0.00275449 0)
(0.990494 -0.00560677 0)
(0.986804 0.00350542 0)
(0.989966 0.00405501 0)
(0.990618 0.00659909 0)
(0.989981 0.0117 0)
(1.00579 2.48434e-05 0)
(0.999917 -0.0119863 0)
(0.98172 -0.00423467 0)
(0.988403 0.00651981 0)
(1.00265 0.00889081 0)
(1.00389 -0.00195691 0)
(0.996064 -0.00664775 0)
(0.991654 -0.00296277 0)
(0.99347 0.00375996 0)
(0.996271 0.0045604 0)
(1.00019 0.00502666 0)
(1.00348 -0.000615462 0)
(1.00142 -0.00341749 0)
(0.995368 -0.00689323 0)
(0.993128 -0.00272961 0)
(0.990677 -0.00513127 0)
(0.986975 0.00317959 0)
(0.98982 0.00439528 0)
(0.990628 0.00634351 0)
(0.989887 0.0116396 0)
(1.00562 1.10593e-05 0)
(1.00009 -0.0117678 0)
(0.981826 -0.00411339 0)
(0.988118 0.00629599 0)
(1.00211 0.00865411 0)
(1.00357 -0.00189765 0)
(0.996057 -0.00639571 0)
(0.991807 -0.00290271 0)
(0.993397 0.00364951 0)
(0.996077 0.00437876 0)
(0.999859 0.00485279 0)
(1.00316 -0.000582922 0)
(1.00121 -0.0032835 0)
(0.995415 -0.00650836 0)
(0.993167 -0.00272161 0)
(0.99089 -0.00463879 0)
(0.987282 0.00288063 0)
(0.989849 0.0046822 0)
(0.990842 0.0061809 0)
(0.990038 0.0114675 0)
(1.00545 9.57895e-08 0)
(1.00016 -0.0115488 0)
(0.982048 -0.00398109 0)
(0.988135 0.00607111 0)
(1.00183 0.00840838 0)
(1.0033 -0.00184186 0)
(0.996059 -0.00614246 0)
(0.992006 -0.00283574 0)
(0.993469 0.00353377 0)
(0.996022 0.00420292 0)
(0.999654 0.00466326 0)
(1.0029 -0.000531654 0)
(1.00101 -0.00317196 0)
(0.995453 -0.00610334 0)
(0.993232 -0.00272037 0)
(0.991115 -0.00414738 0)
(0.987653 0.00262473 0)
(0.989968 0.00490867 0)
(0.991143 0.00610013 0)
(0.990319 0.0112121 0)
(1.00529 -7.18492e-06 0)
(1.00018 -0.0113308 0)
(0.982325 -0.00384031 0)
(0.988285 0.00584392 0)
(1.00165 0.0081561 0)
(1.00306 -0.00178668 0)
(0.996066 -0.00588896 0)
(0.992223 -0.00276217 0)
(0.9936 0.00340915 0)
(0.996022 0.0040373 0)
(0.999497 0.00445637 0)
(1.00267 -0.000460384 0)
(1.00083 -0.00308018 0)
(0.995486 -0.00567872 0)
(0.993311 -0.00271711 0)
(0.991344 -0.00367467 0)
(0.988052 0.00243128 0)
(0.990133 0.00507649 0)
(0.99147 0.00606891 0)
(0.99066 0.0109008 0)
(1.00513 -1.0312e-05 0)
(1.00019 -0.0111148 0)
(0.982628 -0.00369238 0)
(0.988488 0.00561481 0)
(1.00152 0.00789765 0)
(1.00282 -0.00173042 0)
(0.996077 -0.00563697 0)
(0.992448 -0.00268079 0)
(0.993755 0.00327382 0)
(0.996039 0.00388312 0)
(0.999357 0.00423447 0)
(1.00244 -0.000374042 0)
(1.00065 -0.00300104 0)
(0.995514 -0.00524697 0)
(0.9934 -0.00269721 0)
(0.991577 -0.00323076 0)
(0.988465 0.00230661 0)
(0.990323 0.0051888 0)
(0.991797 0.00605658 0)
(0.991027 0.0105625 0)
(1.00497 -9.09913e-06 0)
(1.0002 -0.0109012 0)
(0.982945 -0.00353753 0)
(0.988712 0.00538347 0)
(1.0014 0.00763429 0)
(1.00259 -0.00167296 0)
(0.996091 -0.00538768 0)
(0.992677 -0.00259152 0)
(0.993919 0.00312845 0)
(0.996062 0.00374116 0)
(0.999223 0.0039987 0)
(1.00221 -0.000274528 0)
(1.00048 -0.0029279 0)
(0.99554 -0.00482401 0)
(0.993494 -0.00264851 0)
(0.991817 -0.00283073 0)
(0.988884 0.00223901 0)
(0.99053 0.00525883 0)
(0.992115 0.00604574 0)
(0.991406 0.0102106 0)
(1.00481 -3.11981e-06 0)
(1.0002 -0.010691 0)
(0.983272 -0.00337515 0)
(0.988947 0.00514939 0)
(1.00129 0.00736647 0)
(1.00235 -0.00161341 0)
(0.996106 -0.00514244 0)
(0.992908 -0.0024933 0)
(0.99409 0.00297105 0)
(0.996085 0.00361281 0)
(0.999093 0.00375186 0)
(1.00198 -0.000163458 0)
(1.00032 -0.00285813 0)
(0.995565 -0.00441482 0)
(0.993593 -0.0025586 0)
(0.992063 -0.0024764 0)
(0.989308 0.00220997 0)
(0.99075 0.00530326 0)
(0.992423 0.00602924 0)
(0.991792 0.00984891 0)
(1.00465 7.84763e-06 0)
(1.0002 -0.0104843 0)
(0.983606 -0.00320628 0)
(0.989189 0.00491437 0)
(1.00118 0.00709292 0)
(1.00212 -0.00154985 0)
(0.996123 -0.00490445 0)
(0.99314 -0.0023841 0)
(0.994266 0.00279952 0)
(0.996109 0.00349833 0)
(0.998967 0.00349836 0)
(1.00175 -5.27089e-05 0)
(1.00016 -0.00277775 0)
(0.995592 -0.00403011 0)
(0.993694 -0.00242155 0)
(0.992316 -0.00215248 0)
(0.989736 0.0021993 0)
(0.990979 0.00533366 0)
(0.99272 0.00601083 0)
(0.99218 0.00948885 0)
(1.00448 2.37064e-05 0)
(1.00021 -0.010281 0)
(0.983947 -0.00303144 0)
(0.989436 0.0046788 0)
(1.00107 0.00681395 0)
(1.00188 -0.00148159 0)
(0.99614 -0.00467555 0)
(0.993372 -0.00226329 0)
(0.994446 0.00261486 0)
(0.996132 0.00339419 0)
(0.998843 0.00324574 0)
(1.00152 5.32009e-05 0)
(1.00001 -0.00267351 0)
(0.995622 -0.00367963 0)
(0.993797 -0.00225027 0)
(0.992571 -0.00185347 0)
(0.99017 0.00218986 0)
(0.99122 0.00535247 0)
(0.993004 0.00599201 0)
(0.992569 0.00913262 0)
(1.00431 4.50725e-05 0)
(1.00022 -0.0100823 0)
(0.984294 -0.00285023 0)
(0.989687 0.00444343 0)
(1.00098 0.00652823 0)
(1.00165 -0.00140753 0)
(0.996159 -0.00445594 0)
(0.993604 -0.00213072 0)
(0.994629 0.0024201 0)
(0.996157 0.00329653 0)
(0.998722 0.00299503 0)
(1.00129 0.000141613 0)
(0.999857 -0.00254453 0)
(0.995656 -0.00336394 0)
(0.993903 -0.00204573 0)
(0.992829 -0.00156635 0)
(0.990608 0.00218103 0)
(0.991473 0.00535352 0)
(0.993274 0.00597115 0)
(0.992956 0.00877837 0)
(1.00414 7.1688e-05 0)
(1.00023 -0.00988747 0)
(0.984648 -0.00266413 0)
(0.989941 0.00421051 0)
(1.00088 0.00623545 0)
(1.00142 -0.00132612 0)
(0.99618 -0.00424991 0)
(0.993835 -0.0019854 0)
(0.994816 0.00221716 0)
(0.996182 0.00320232 0)
(0.998604 0.00275534 0)
(1.00107 0.000207994 0)
(0.999708 -0.00237697 0)
(0.995695 -0.00307771 0)
(0.994012 -0.00181819 0)
(0.993086 -0.00127453 0)
(0.99105 0.00217742 0)
(0.991737 0.00532936 0)
(0.993532 0.00595216 0)
(0.993338 0.00842898 0)
(1.00396 0.000103481 0)
(1.00024 -0.00969608 0)
(0.985008 -0.00247475 0)
(0.990197 0.00398168 0)
(1.00079 0.00593555 0)
(1.00119 -0.00123549 0)
(0.996202 -0.00405736 0)
(0.994063 -0.00183066 0)
(0.995005 0.00201388 0)
(0.99621 0.00310105 0)
(0.998488 0.00254334 0)
(1.00085 0.000254199 0)
(0.999562 -0.00218463 0)
(0.995737 -0.00280665 0)
(0.994127 -0.00159011 0)
(0.993342 -0.00097699 0)
(0.991491 0.00218556 0)
(0.992013 0.00528067 0)
(0.993776 0.00593447 0)
(0.993715 0.00808096 0)
(1.00378 0.000140945 0)
(1.00026 -0.00950904 0)
(0.985377 -0.00228274 0)
(0.990455 0.00375894 0)
(1.00071 0.00562374 0)
(1.00097 -0.0011339 0)
(0.996226 -0.00387939 0)
(0.994289 -0.00166879 0)
(0.995196 0.00180974 0)
(0.996241 0.00299726 0)
(0.998374 0.00235508 0)
(1.00065 0.000271613 0)
(0.999421 -0.00197919 0)
(0.995781 -0.00253972 0)
(0.994248 -0.00137707 0)
(0.993595 -0.000685616 0)
(0.99193 0.00220875 0)
(0.992301 0.00520282 0)
(0.994007 0.0059053 0)
(0.994082 0.00773589 0)
(1.0036 0.000183486 0)
(1.00028 -0.00932546 0)
(0.985753 -0.00208872 0)
(0.990712 0.00354169 0)
(1.00064 0.00530241 0)
(1.00075 -0.00102141 0)
(0.996254 -0.00371775 0)
(0.994512 -0.00150156 0)
(0.995386 0.00160946 0)
(0.996275 0.00288028 0)
(0.99826 0.00219978 0)
(1.00045 0.000261741 0)
(0.999286 -0.00175994 0)
(0.995826 -0.00227093 0)
(0.994375 -0.00117323 0)
(0.993849 -0.000403439 0)
(0.992361 0.00225734 0)
(0.992598 0.00510273 0)
(0.994227 0.00585528 0)
(0.994439 0.00740458 0)
(1.00342 0.000231297 0)
(1.00031 -0.00914463 0)
(0.986138 -0.00189682 0)
(0.99097 0.00333664 0)
(1.00057 0.0049698 0)
(1.00053 -0.000896961 0)
(0.996285 -0.00356769 0)
(0.994731 -0.00133839 0)
(0.995575 0.00142247 0)
(0.996315 0.00273894 0)
(0.998147 0.00208286 0)
(1.00026 0.000239387 0)
(0.999162 -0.00154849 0)
(0.995871 -0.00198409 0)
(0.994508 -0.000975358 0)
(0.994104 -0.000143469 0)
(0.992783 0.00232744 0)
(0.992898 0.00500162 0)
(0.994436 0.00578019 0)
(0.994784 0.00708555 0)
(1.00324 0.000283854 0)
(1.00034 -0.00896495 0)
(0.986531 -0.00170981 0)
(0.991227 0.00314713 0)
(1.00051 0.00462481 0)
(1.00033 -0.000762535 0)
(0.996319 -0.00342893 0)
(0.994948 -0.00117944 0)
(0.99576 0.00125681 0)
(0.996361 0.00257545 0)
(0.998037 0.00199535 0)
(1.00009 0.000210912 0)
(0.99905 -0.00135669 0)
(0.995916 -0.00167979 0)
(0.994642 -0.000782387 0)
(0.994361 7.83403e-05 0)
(0.993198 0.00239343 0)
(0.993199 0.0049154 0)
(0.994634 0.00568697 0)
(0.995118 0.00676714 0)
(1.00305 0.000340554 0)
(1.00038 -0.00878663 0)
(0.986933 -0.00152651 0)
(0.991482 0.00297225 0)
(1.00045 0.00426552 0)
(1.00012 -0.000615826 0)
(0.996357 -0.00329581 0)
(0.995164 -0.00103185 0)
(0.995941 0.00111882 0)
(0.996413 0.00238772 0)
(0.997929 0.00192992 0)
(0.999914 0.000185936 0)
(0.998954 -0.00119136 0)
(0.995964 -0.00137658 0)
(0.994774 -0.000579524 0)
(0.994618 0.000274252 0)
(0.993609 0.00244312 0)
(0.9935 0.00484837 0)
(0.994816 0.00560271 0)
(0.995436 0.00645076 0)
(1.00287 0.000401875 0)
(1.00042 -0.00861011 0)
(0.987345 -0.00135426 0)
(0.991734 0.00281655 0)
(1.00041 0.0038934 0)
(0.99993 -0.000463155 0)
(0.996396 -0.00316237 0)
(0.995378 -0.000909361 0)
(0.996114 0.00101425 0)
(0.996471 0.00217701 0)
(0.997827 0.00187455 0)
(0.999747 0.000183905 0)
(0.998873 -0.00105642 0)
(0.996018 -0.00108049 0)
(0.994903 -0.000365748 0)
(0.994873 0.000449303 0)
(0.994017 0.00246488 0)
(0.993804 0.0047738 0)
(0.994978 0.00554416 0)
(0.995732 0.00615072 0)
(1.00269 0.000466705 0)
(1.00047 -0.0084318 0)
(0.987766 -0.00119352 0)
(0.991982 0.00268421 0)
(1.00037 0.00351331 0)
(0.999745 -0.00030942 0)
(0.996437 -0.00302564 0)
(0.995594 -0.000812244 0)
(0.99628 0.000944403 0)
(0.996535 0.00195664 0)
(0.997733 0.00182183 0)
(0.999583 0.000210982 0)
(0.998808 -0.000941515 0)
(0.996081 -0.000802097 0)
(0.995027 -0.000129899 0)
(0.99512 0.000610845 0)
(0.994421 0.00246444 0)
(0.994118 0.00466854 0)
(0.995125 0.00550459 0)
(0.995994 0.00589412 0)
(1.0025 0.000533455 0)
(1.00052 -0.00824929 0)
(0.988198 -0.00104675 0)
(0.992224 0.00257587 0)
(1.00035 0.0031202 0)
(0.999571 -0.000157392 0)
(0.996477 -0.00287745 0)
(0.995811 -0.000746745 0)
(0.996438 0.000909394 0)
(0.996602 0.00173679 0)
(0.997651 0.00175927 0)
(0.999422 0.000271385 0)
(0.998756 -0.000835599 0)
(0.996157 -0.000553891 0)
(0.995147 0.000130559 0)
(0.995355 0.000771399 0)
(0.994816 0.00245498 0)
(0.994444 0.00453822 0)
(0.995264 0.00545536 0)
(0.996214 0.00570084 0)
(1.00232 0.000602108 0)
(1.00058 -0.0080619 0)
(0.988641 -0.00091834 0)
(0.99246 0.00249228 0)
(1.00034 0.00272206 0)
(0.99941 -1.35857e-05 0)
(0.996513 -0.00271205 0)
(0.996031 -0.000718125 0)
(0.996589 0.000904517 0)
(0.996669 0.00152617 0)
(0.997582 0.00167339 0)
(0.999265 0.000363428 0)
(0.998714 -0.000727306 0)
(0.996249 -0.000349134 0)
(0.995266 0.000389232 0)
(0.995572 0.000941767 0)
(0.995199 0.00243229 0)
(0.994781 0.00438736 0)
(0.995407 0.00537192 0)
(0.996392 0.00556415 0)
(1.00215 0.000672239 0)
(1.00064 -0.00786893 0)
(0.989096 -0.000809338 0)
(0.992688 0.00243773 0)
(1.00033 0.00232186 0)
(0.999264 0.000112044 0)
(0.996545 -0.00252219 0)
(0.996254 -0.000726462 0)
(0.996736 0.000912601 0)
(0.996734 0.00134067 0)
(0.997531 0.00155906 0)
(0.999116 0.000468971 0)
(0.998675 -0.000600761 0)
(0.996358 -0.000181766 0)
(0.99539 0.000625094 0)
(0.995772 0.0011372 0)
(0.995563 0.00241246 0)
(0.995126 0.00421641 0)
(0.995562 0.00525362 0)
(0.996536 0.00545373 0)
(1.00197 0.000741069 0)
(1.0007 -0.00766512 0)
(0.989565 -0.000727578 0)
(0.992907 0.00240605 0)
(1.00034 0.00192722 0)
(0.999139 0.000217807 0)
(0.99657 -0.00230404 0)
(0.996477 -0.000768628 0)
(0.996881 0.000924544 0)
(0.996793 0.00119625 0)
(0.997495 0.00141587 0)
(0.998979 0.000576243 0)
(0.998639 -0.000446643 0)
(0.996479 -4.83653e-05 0)
(0.995525 0.00082611 0)
(0.995955 0.00134154 0)
(0.995899 0.00241487 0)
(0.995472 0.00403063 0)
(0.995734 0.00510271 0)
(0.996657 0.00534203 0)
(1.0018 0.000807876 0)
(1.00077 -0.00744721 0)
(0.990046 -0.000672552 0)
(0.993118 0.00240205 0)
(1.00035 0.0015439 0)
(0.999035 0.0002986 0)
(0.996586 -0.00205972 0)
(0.9967 -0.000827206 0)
(0.99703 0.000927872 0)
(0.996844 0.00109932 0)
(0.997474 0.00125976 0)
(0.99886 0.000671439 0)
(0.998602 -0.000261387 0)
(0.996607 5.97112e-05 0)
(0.995674 0.000978916 0)
(0.996128 0.00152644 0)
(0.996204 0.00244447 0)
(0.995811 0.00384828 0)
(0.995924 0.00491687 0)
(0.996766 0.00521769 0)
(1.00163 0.000871451 0)
(1.00084 -0.00721603 0)
(0.990541 -0.000644567 0)
(0.99332 0.00242241 0)
(1.00036 0.00117684 0)
(0.998957 0.000340386 0)
(0.996596 -0.00178715 0)
(0.996918 -0.000899065 0)
(0.997184 0.000907953 0)
(0.996888 0.00105361 0)
(0.997464 0.00110016 0)
(0.998764 0.000732853 0)
(0.998564 -6.18371e-05 0)
(0.996735 0.000170991 0)
(0.995837 0.001081 0)
(0.996298 0.00167929 0)
(0.99648 0.00249818 0)
(0.996134 0.00369785 0)
(0.996129 0.00470666 0)
(0.996873 0.00507641 0)
(1.00147 0.000930629 0)
(1.00091 -0.00696763 0)
(0.99105 -0.000647542 0)
(0.993513 0.00245751 0)
(1.00038 0.000837785 0)
(0.998906 0.000345286 0)
(0.996597 -0.00149131 0)
(0.997127 -0.000973171 0)
(0.997349 0.000854535 0)
(0.996924 0.00105743 0)
(0.997459 0.000955662 0)
(0.998693 0.000752412 0)
(0.99853 0.000146814 0)
(0.996856 0.000301613 0)
(0.99601 0.00114576 0)
(0.996473 0.00179369 0)
(0.996733 0.00255614 0)
(0.996432 0.00358639 0)
(0.996342 0.00449113 0)
(0.99698 0.00491362 0)
(1.00131 0.000983182 0)
(1.00098 -0.006697 0)
(0.991573 -0.000683998 0)
(0.993698 0.00250916 0)
(1.00039 0.000531495 0)
(0.998886 0.000305955 0)
(0.996593 -0.00118016 0)
(0.997321 -0.00103134 0)
(0.997527 0.00075984 0)
(0.996956 0.00109114 0)
(0.997453 0.000847416 0)
(0.998649 0.00072394 0)
(0.998508 0.000356007 0)
(0.996966 0.000469115 0)
(0.996186 0.00119638 0)
(0.996656 0.00186041 0)
(0.996972 0.0025968 0)
(0.996705 0.00350814 0)
(0.996551 0.00429266 0)
(0.997086 0.00473768 0)
(1.00116 0.00102728 0)
(1.00104 -0.00640289 0)
(0.99211 -0.000750444 0)
(0.993878 0.0025659 0)
(1.00039 0.000268504 0)
(0.998899 0.000223174 0)
(0.996586 -0.0008671 0)
(0.997496 -0.00106131 0)
(0.997721 0.000623929 0)
(0.996991 0.00114355 0)
(0.997438 0.00078512 0)
(0.99863 0.000661715 0)
(0.998507 0.000529925 0)
(0.997063 0.000668234 0)
(0.996352 0.00125549 0)
(0.996845 0.00187927 0)
(0.997206 0.0026077 0)
(0.996956 0.00345726 0)
(0.996752 0.00412538 0)
(0.99719 0.00456102 0)
(1.00102 0.0010616 0)
(1.0011 -0.00608407 0)
(0.992658 -0.000842431 0)
(0.994055 0.00262057 0)
(1.00039 5.32346e-05 0)
(0.998942 9.74534e-05 0)
(0.996581 -0.000558817 0)
(0.997646 -0.00105171 0)
(0.997929 0.000448722 0)
(0.997035 0.00119105 0)
(0.997411 0.000778057 0)
(0.998629 0.000585245 0)
(0.998535 0.000648337 0)
(0.997154 0.000873929 0)
(0.9965 0.00133447 0)
(0.997032 0.00186802 0)
(0.997445 0.00257501 0)
(0.997195 0.00341006 0)
(0.996938 0.00399654 0)
(0.997291 0.00438502 0)
(1.00088 0.0010844 0)
(1.00115 -0.005738 0)
(0.993215 -0.000960567 0)
(0.99423 0.00266691 0)
(1.00037 -0.000108316 0)
(0.999017 -6.54904e-05 0)
(0.996584 -0.000273067 0)
(0.997764 -0.000998646 0)
(0.998149 0.000252436 0)
(0.997098 0.00121733 0)
(0.99737 0.000828946 0)
(0.998636 0.000511141 0)
(0.998595 0.000704531 0)
(0.997248 0.00106823 0)
(0.996625 0.00144406 0)
(0.997207 0.00185629 0)
(0.99769 0.00249844 0)
(0.997436 0.00333943 0)
(0.99711 0.00391202 0)
(0.997386 0.0042217 0)
(1.00076 0.00109436 0)
(1.00119 -0.00536773 0)
(0.993779 -0.00109524 0)
(0.994407 0.00269518 0)
(1.00033 -0.00020579 0)
(0.99912 -0.00025933 0)
(0.996602 -1.92708e-05 0)
(0.99785 -0.000889723 0)
(0.998374 5.63827e-05 0)
(0.997189 0.00121049 0)
(0.997317 0.000927196 0)
(0.998638 0.000465361 0)
(0.998688 0.000700075 0)
(0.997359 0.00122882 0)
(0.996728 0.00158229 0)
(0.997356 0.0018625 0)
(0.997934 0.00239274 0)
(0.997694 0.00322318 0)
(0.997276 0.00384816 0)
(0.997467 0.00409677 0)
(1.00064 0.00109135 0)
(1.00122 -0.00497491 0)
(0.994346 -0.00124027 0)
(0.994591 0.00269539 0)
(1.00027 -0.000241039 0)
(0.999247 -0.000466531 0)
(0.996642 0.000191537 0)
(0.997901 -0.000725841 0)
(0.998596 -0.000135398 0)
(0.997312 0.00115397 0)
(0.997261 0.00104881 0)
(0.998624 0.000461156 0)
(0.998806 0.000650947 0)
(0.997497 0.00133633 0)
(0.996818 0.00173303 0)
(0.99747 0.00189597 0)
(0.998161 0.00228647 0)
(0.997974 0.00306066 0)
(0.997458 0.00376281 0)
(0.997529 0.00402596 0)
(1.00053 0.00107488 0)
(1.00124 -0.00456159 0)
(0.994911 -0.0013948 0)
(0.994785 0.00266204 0)
(1.00019 -0.000217162 0)
(0.999391 -0.000674059 0)
(0.99671 0.000346239 0)
(0.997921 -0.000524215 0)
(0.998804 -0.000309144 0)
(0.997473 0.0010506 0)
(0.997211 0.00118221 0)
(0.998585 0.000511835 0)
(0.998939 0.000585193 0)
(0.997673 0.0013818 0)
(0.996907 0.00187652 0)
(0.997547 0.00196043 0)
(0.998358 0.00220213 0)
(0.998267 0.00286954 0)
(0.997678 0.00362264 0)
(0.997586 0.00398621 0)
(1.00044 0.00104368 0)
(1.00124 -0.00413455 0)
(0.995469 -0.00154323 0)
(0.994994 0.00258928 0)
(1.00009 -0.000140339 0)
(0.999544 -0.000869153 0)
(0.996811 0.000433772 0)
(0.997911 -0.000292124 0)
(0.998989 -0.000440944 0)
(0.997672 0.000895669 0)
(0.99718 0.00129882 0)
(0.998517 0.000614213 0)
(0.999069 0.000523481 0)
(0.997885 0.00135903 0)
(0.997008 0.00199006 0)
(0.997591 0.0020523 0)
(0.99851 0.00214991 0)
(0.998554 0.00267914 0)
(0.997947 0.00342395 0)
(0.997666 0.00392308 0)
(1.00035 0.000999428 0)
(1.00122 -0.00370087 0)
(0.996014 -0.00167718 0)
(0.99522 0.00247114 0)
(0.999964 -2.86949e-05 0)
(0.999697 -0.00103504 0)
(0.99695 0.000452483 0)
(0.997883 -5.30924e-05 0)
(0.999137 -0.000514605 0)
(0.997903 0.00070204 0)
(0.997182 0.00137578 0)
(0.998426 0.000758767 0)
(0.99918 0.000488668 0)
(0.998133 0.00127906 0)
(0.997141 0.0020561 0)
(0.997613 0.0021588 0)
(0.998613 0.00213258 0)
(0.998814 0.00251483 0)
(0.99825 0.00319066 0)
(0.997808 0.00378759 0)
(1.00028 0.000942658 0)
(1.00119 -0.00326619 0)
(0.996538 -0.00179087 0)
(0.995465 0.00230868 0)
(0.999825 0.000114212 0)
(0.999841 -0.00116102 0)
(0.997126 0.000415543 0)
(0.997844 0.000181021 0)
(0.999246 -0.000518459 0)
(0.998158 0.000502255 0)
(0.997229 0.00140418 0)
(0.998317 0.000932514 0)
(0.999255 0.000498606 0)
(0.998401 0.00116474 0)
(0.997317 0.00205967 0)
(0.997626 0.00225926 0)
(0.998666 0.00214894 0)
(0.999032 0.00238467 0)
(0.998562 0.00296201 0)
(0.998028 0.00357126 0)
(1.00021 0.00087572 0)
(1.00114 -0.0028405 0)
(0.997036 -0.00187009 0)
(0.995732 0.00210873 0)
(0.999675 0.000279758 0)
(0.999967 -0.00123329 0)
(0.997338 0.000325127 0)
(0.997808 0.000399783 0)
(0.999308 -0.0004542 0)
(0.99842 0.000310522 0)
(0.997326 0.00136961 0)
(0.998206 0.00110667 0)
(0.999287 0.000560483 0)
(0.998672 0.0010458 0)
(0.997541 0.00199885 0)
(0.997652 0.00233456 0)
(0.998676 0.00219544 0)
(0.999201 0.0022862 0)
(0.998853 0.00276715 0)
(0.998314 0.00330715 0)
(1.00016 0.000800781 0)
(1.00108 -0.00243042 0)
(0.997501 -0.00191201 0)
(0.996019 0.00187531 0)
(0.999522 0.00044483 0)
(1.00007 -0.00124817 0)
(0.99758 0.000201007 0)
(0.997788 0.000574497 0)
(0.999325 -0.000336988 0)
(0.998676 0.000145151 0)
(0.997476 0.00128028 0)
(0.998111 0.00125982 0)
(0.999272 0.000672997 0)
(0.998925 0.00094718 0)
(0.997809 0.00188166 0)
(0.997708 0.00236349 0)
(0.998652 0.00225912 0)
(0.99932 0.002217 0)
(0.999105 0.00260813 0)
(0.998624 0.00305004 0)
(1.00011 0.000720232 0)
(1.001 -0.00204165 0)
(0.997929 -0.00191528 0)
(0.996326 0.00161731 0)
(0.999373 0.000597078 0)
(1.00014 -0.00120433 0)
(0.997845 6.20511e-05 0)
(0.997792 0.000695128 0)
(0.999302 -0.000182066 0)
(0.99891 2.39608e-05 0)
(0.997675 0.00114768 0)
(0.998048 0.00136961 0)
(0.999217 0.000818218 0)
(0.999139 0.00088652 0)
(0.998109 0.0017306 0)
(0.997814 0.00233424 0)
(0.998612 0.00232274 0)
(0.999389 0.00218247 0)
(0.999316 0.00247191 0)
(0.998916 0.00284203 0)
(1.00007 0.000637153 0)
(1.00091 -0.00168339 0)
(0.998315 -0.00187483 0)
(0.996647 0.00134741 0)
(0.999236 0.000724407 0)
(1.00017 -0.0011061 0)
(0.998121 -8.06278e-05 0)
(0.997829 0.000758284 0)
(0.99925 -1.22994e-05 0)
(0.99911 -4.81491e-05 0)
(0.99791 0.000991245 0)
(0.99803 0.00142455 0)
(0.999135 0.000974406 0)
(0.999301 0.000873574 0)
(0.99842 0.00157342 0)
(0.997974 0.00224645 0)
(0.998579 0.00236197 0)
(0.999409 0.00218147 0)
(0.99949 0.00234816 0)
(0.999166 0.00268438 0)
(1.00005 0.000553778 0)
(1.00082 -0.00135899 0)
(0.998655 -0.00179365 0)
(0.996979 0.00107648 0)
(0.999119 0.000815326 0)
(1.00017 -0.000965386 0)
(0.998396 -0.000213203 0)
(0.997901 0.000765085 0)
(0.999179 0.000165405 0)
(0.999269 -6.41405e-05 0)
(0.998169 0.000832213 0)
(0.998064 0.0014217 0)
(0.999044 0.00111952 0)
(0.999407 0.000907295 0)
(0.998718 0.00143335 0)
(0.998185 0.00211316 0)
(0.998576 0.0023572 0)
(0.999389 0.00220359 0)
(0.999625 0.00224383 0)
(0.999375 0.00255294 0)
(1.00002 0.000472806 0)
(1.00072 -0.00107232 0)
(0.998949 -0.00167689 0)
(0.997315 0.00081724 0)
(0.999028 0.000864635 0)
(1.00014 -0.000796527 0)
(0.998659 -0.00031794 0)
(0.998012 0.00072289 0)
(0.999105 0.000333128 0)
(0.999381 -2.5994e-05 0)
(0.998434 0.000688032 0)
(0.998152 0.00136691 0)
(0.998962 0.00123492 0)
(0.999461 0.000976321 0)
(0.998984 0.00132675 0)
(0.998432 0.00195686 0)
(0.998623 0.00229936 0)
(0.999346 0.00222657 0)
(0.999717 0.00216979 0)
(0.999553 0.00242616 0)
(1.00001 0.000396871 0)
(1.00062 -0.000824503 0)
(0.999198 -0.00153176 0)
(0.997646 0.000578634 0)
(0.998966 0.000873321 0)
(1.00009 -0.000612602 0)
(0.9989 -0.000384098 0)
(0.998158 0.000647022 0)
(0.99904 0.000467647 0)
(0.999451 5.30027e-05 0)
(0.998687 0.000572945 0)
(0.998287 0.00127505 0)
(0.998908 0.00130817 0)
(0.999474 0.0010605 0)
(0.999202 0.00125929 0)
(0.998692 0.00180185 0)
(0.998723 0.00219517 0)
(0.999308 0.00222633 0)
(0.999764 0.00212745 0)
(0.999706 0.00230234 0)
(0.999998 0.000327657 0)
(1.00053 -0.000615475 0)
(0.999402 -0.00136614 0)
(0.997968 0.000369208 0)
(0.998936 0.000844467 0)
(1.00002 -0.00042795 0)
(0.999111 -0.000408974 0)
(0.998331 0.000551849 0)
(0.998997 0.000563143 0)
(0.999484 0.00015657 0)
(0.998915 0.000494821 0)
(0.998459 0.00116421 0)
(0.99889 0.00133554 0)
(0.999462 0.00114132 0)
(0.999371 0.00122766 0)
(0.998945 0.00166497 0)
(0.998869 0.00206238 0)
(0.999298 0.00218696 0)
(0.999774 0.00210323 0)
(0.999831 0.0021915 0)
(0.999991 0.000266125 0)
(1.00044 -0.000443629 0)
(0.999566 -0.00118932 0)
(0.998272 0.000195118 0)
(0.998939 0.000783976 0)
(0.999937 -0.000255482 0)
(0.999288 -0.000393391 0)
(0.998521 0.000452003 0)
(0.998982 0.00061677 0)
(0.999491 0.000266758 0)
(0.99911 0.000455406 0)
(0.998652 0.00105072 0)
(0.998914 0.00132052 0)
(0.999442 0.00120507 0)
(0.999493 0.001222 0)
(0.999173 0.00155342 0)
(0.999042 0.00192173 0)
(0.999328 0.00210789 0)
(0.999767 0.00207622 0)
(0.999921 0.00210157 0)
(0.999988 0.000213175 0)
(1.00035 -0.000305989 0)
(0.999693 -0.00100969 0)
(0.998553 5.96142e-05 0)
(0.998971 0.000701379 0)
(0.999859 -0.000103962 0)
(0.99943 -0.000344811 0)
(0.998717 0.000359507 0)
(0.998997 0.000633231 0)
(0.999485 0.000370024 0)
(0.999268 0.000450286 0)
(0.998852 0.000946996 0)
(0.998977 0.00127181 0)
(0.999429 0.00124284 0)
(0.999578 0.00122894 0)
(0.999368 0.00146706 0)
(0.999225 0.00178832 0)
(0.999399 0.00200104 0)
(0.999764 0.00202945 0)
(0.999978 0.00202931 0)
(0.999987 0.000168772 0)
(1.00028 -0.000198514 0)
(0.999788 -0.000834774 0)
(0.998807 -3.74114e-05 0)
(0.999029 0.000606866 0)
(0.999789 1.9348e-05 0)
(0.999539 -0.000272851 0)
(0.99891 0.000283273 0)
(0.999043 0.000620422 0)
(0.999477 0.00045604 0)
(0.999391 0.000470282 0)
(0.999045 0.000862045 0)
(0.999072 0.00120194 0)
(0.999434 0.00125158 0)
(0.999636 0.00123687 0)
(0.999529 0.00140166 0)
(0.999403 0.00166894 0)
(0.999498 0.00188188 0)
(0.999782 0.00195766 0)
(1.00001 0.00196324 0)
(0.999987 0.000132682 0)
(1.00022 -0.000116761 0)