/*--------------------------------*- C++ -*----------------------------------*\
| =========                 |                                                 |
| \\      /  F ield         | OpenFOAM: The Open Source CFD Toolbox           |
|  \\    /   O peration     | Version:  2106                                  |
|   \\  /    A nd           | Website:  www.openfoam.com                      |
|    \\/     M anipulation  |                                                 |
\*---------------------------------------------------------------------------*/
FoamFile
{
    version     2.0;
    format      ascii;
    arch        "LSB;label=32;scalar=64";
    class       volScalarField;
    location    "0.995";
    object      p;
}
// * * * * * * * * * * * * * * * * * * * * * * * * * * * * * * * * * * * * * //

dimensions      [0 2 -2 0 0 0 0];

internalField   nonuniform List<scalar> 
9600
(
1.63772e-11
0.00377699
0.00323379
0.00252504
0.00259343
0.00228798
0.00277573
0.00314209
0.0037671
0.00409017
0.00338541
0.00289615
0.00274014
0.00340672
0.00335246
0.00439005
0.00464597
0.00676613
0.0087066
0.0142494
1.74949e-06
0.00376858
0.00323611
0.0025253
0.00259456
0.0022983
0.00277808
0.00311988
0.00376923
0.00406672
0.00339058
0.00288494
0.00274635
0.00340849
0.00335736
0.00438376
0.00466417
0.00673547
0.00875043
0.0136653
3.7742e-06
0.00376061
0.00323956
0.00252686
0.00259729
0.00230686
0.00277778
0.00310551
0.00376908
0.00403945
0.00339632
0.00288062
0.00275529
0.00341019
0.00336695
0.00437186
0.00468788
0.00669682
0.00871519
0.0130974
6.62364e-06
0.00375084
0.00324393
0.00253023
0.00259951
0.00231243
0.00277734
0.00308942
0.00376644
0.00400969
0.00339856
0.00288489
0.00276407
0.00341178
0.0033788
0.00435383
0.00471658
0.00664535
0.00867961
0.0125606
1.095e-05
0.00374012
0.00324948
0.00253478
0.00260043
0.00231643
0.00277789
0.0030711
0.00376282
0.00397724
0.00339967
0.00289485
0.00277299
0.00341244
0.00339185
0.00433258
0.00474555
0.00658613
0.00862104
0.0120527
1.70247e-05
0.00372846
0.00325616
0.00253972
0.00259979
0.00231991
0.00277953
0.00305136
0.00375887
0.00394307
0.00340135
0.00290692
0.00278254
0.0034114
0.00340595
0.00430936
0.00477327
0.00652291
0.00853959
0.0115708
2.4668e-05
0.0037158
0.00326384
0.00254455
0.00259755
0.00232372
0.00278229
0.00303122
0.0037549
0.00390784
0.00340372
0.00291842
0.00279273
0.00340851
0.00342043
0.00428539
0.00479854
0.00645774
0.00843499
0.0111137
3.3468e-05
0.0037021
0.00327242
0.00254911
0.00259391
0.00232849
0.00278609
0.00301134
0.00375094
0.00387169
0.00340662
0.00292786
0.00280358
0.00340402
0.0034345
0.00426202
0.00481921
0.00639169
0.00830795
0.01068
4.30313e-05
0.00368757
0.00328184
0.00255344
0.00258925
0.00233445
0.00279068
0.00299197
0.00374683
0.00383471
0.00340992
0.0029348
0.0028151
0.00339829
0.00344761
0.0042403
0.00483279
0.00632512
0.00815778
0.0102657
5.3111e-05
0.00367224
0.00329201
0.00255768
0.00258392
0.0023415
0.00279578
0.0029731
0.00374251
0.00379703
0.00341342
0.00293944
0.00282707
0.00339201
0.00345891
0.0042207
0.00483777
0.00625805
0.00799336
0.00986554
6.36089e-05
0.00365618
0.00330288
0.00256191
0.00257818
0.00234937
0.00280117
0.00295452
0.00373792
0.00375888
0.0034169
0.00294215
0.00283911
0.00338603
0.00346701
0.0042036
0.00483362
0.00618932
0.0078177
0.00947474
7.45253e-05
0.0036394
0.0033144
0.00256615
0.00257224
0.00235779
0.00280671
0.00293598
0.003733
0.00372048
0.00342002
0.00294339
0.00285069
0.00338118
0.00347068
0.00418934
0.00482005
0.0061167
0.00763014
0.00908963
8.59083e-05
0.00362191
0.0033265
0.00257034
0.00256625
0.00236649
0.00281229
0.00291725
0.00372767
0.0036821
0.00342235
0.00294375
0.00286101
0.00337811
0.00346931
0.00417761
0.00479682
0.00603742
0.00743443
0.00870779
9.78262e-05
0.00360365
0.00333916
0.00257443
0.00256033
0.00237528
0.00281785
0.00289817
0.0037218
0.00364397
0.00342349
0.00294383
0.00286919
0.00337749
0.00346245
0.00416753
0.00476458
0.00594803
0.0072327
0.00832894
0.000110361
0.00358458
0.00335235
0.00257835
0.00255459
0.00238401
0.00282336
0.00287864
0.00371525
0.00360639
0.00342298
0.00294433
0.0028744
0.00337978
0.00344976
0.00415757
0.00472534
0.00584467
0.00703313
0.00795439
0.000123604
0.0035646
0.00336607
0.00258203
0.00254912
0.00239259
0.00282877
0.00285863
0.00370783
0.00356968
0.0034203
0.00294593
0.00287598
0.00338499
0.00343155
0.00414545
0.0046818
0.00572425
0.0068338
0.00758753
0.000137655
0.0035436
0.00338031
0.00258544
0.00254401
0.00240094
0.00283404
0.00283822
0.00369931
0.00353421
0.00341487
0.00294921
0.00287348
0.00339284
0.00340859
0.00412824
0.00463643
0.00558584
0.00663309
0.00723275
0.000152628
0.00352145
0.00339509
0.00258852
0.00253932
0.00240901
0.00283908
0.00281755
0.00368943
0.00350032
0.00340607
0.0029546
0.00286656
0.00340275
0.00338228
0.00410247
0.00459085
0.00543045
0.00642791
0.00689416
0.000168649
0.003498
0.00341044
0.00259122
0.00253513
0.00241677
0.00284382
0.0027968
0.00367781
0.00346793
0.00339331
0.00296248
0.00285517
0.00341342
0.0033548
0.00406501
0.00454544
0.00526111
0.00621361
0.00657458
0.00018586
0.00347308
0.00342635
0.0025935
0.00253146
0.00242421
0.00284813
0.0027762
0.00366405
0.00343942
0.00337621
0.00297307
0.00283982
0.00342281
0.0033283
0.00401403
0.00449917
0.00508214
0.00598611
0.00627495
0.000204412
0.00344651
0.00344284
0.00259532
0.00252832
0.00243136
0.00285183
0.0027561
0.00364774
0.00341426
0.00335453
0.00298733
0.00282142
0.00342864
0.00330408
0.00394881
0.0044497
0.00489849
0.00574354
0.00599473
0.000224482
0.00341807
0.00345992
0.00259666
0.00252573
0.0024383
0.00285466
0.00273695
0.00362841
0.0033926
0.00332831
0.00300729
0.00280103
0.00342872
0.00328283
0.00386947
0.00439399
0.00471511
0.00548549
0.00573084
0.000246264
0.00338752
0.00347758
0.00259752
0.00252364
0.00244518
0.00285627
0.00271924
0.00360566
0.00337442
0.00329774
0.00302148
0.00278001
0.00342117
0.00326478
0.00377723
0.00432872
0.00453629
0.00521303
0.00547736
0.000269961
0.00335465
0.00349577
0.00259795
0.00252191
0.00245221
0.00285632
0.0027034
0.00357924
0.00335956
0.00326326
0.0030341
0.00275991
0.00340469
0.0032492
0.00367425
0.00425056
0.00436499
0.00492957
0.00522699
0.000295786
0.00331922
0.00351443
0.00259805
0.00252038
0.00245968
0.00285434
0.00268972
0.00354906
0.00334769
0.00322581
0.00304358
0.00274177
0.00337843
0.00323431
0.00356313
0.0041571
0.00420295
0.00464042
0.00497263
0.000323964
0.00328099
0.00353352
0.00259793
0.00251887
0.00246809
0.00284978
0.0026784
0.00351528
0.00333812
0.00318664
0.00304829
0.00272574
0.00334213
0.0032181
0.00344628
0.00404692
0.00405051
0.00435178
0.00470855
0.000354739
0.00323972
0.00355296
0.00259779
0.002517
0.0024779
0.00284229
0.00266953
0.00347826
0.00332981
0.00314708
0.00304732
0.00271127
0.00329618
0.00319893
0.00332592
0.00391941
0.00390632
0.00407003
0.00443099
0.00038838
0.00319523
0.00357217
0.00259797
0.00251433
0.00248955
0.00283163
0.00266286
0.00343862
0.00332163
0.00310816
0.00304018
0.00269738
0.00324097
0.00317508
0.00320423
0.00377481
0.00376759
0.00380179
0.00413891
0.000425143
0.00314734
0.00359095
0.00259884
0.00251037
0.00250353
0.0028177
0.00265779
0.00339736
0.00331252
0.00307051
0.00302629
0.00268293
0.00317696
0.0031447
0.00308389
0.00361372
0.00363304
0.0035536
0.00383547
0.000465271
0.00309598
0.00360886
0.00260084
0.00250463
0.00252016
0.00280061
0.00265359
0.00335562
0.00330136
0.00303436
0.00300543
0.00266641
0.00310477
0.0031064
0.00296743
0.00343787
0.00349637
0.00333044
0.00352867
0.000508993
0.00304117
0.00362535
0.00260443
0.00249671
0.00253962
0.00278067
0.00264929
0.00331461
0.00328713
0.00299938
0.00297813
0.00264611
0.00302469
0.00305947
0.00285657
0.00325054
0.00335236
0.00313345
0.0032304
0.000556533
0.00298298
0.00363978
0.00261006
0.00248626
0.00256193
0.00275853
0.00264363
0.00327546
0.00326911
0.0029645
0.00294537
0.00262099
0.00293678
0.00300372
0.00275265
0.00305606
0.00319472
0.00295795
0.00295255
0.000608108
0.00292167
0.00365134
0.00261818
0.00247305
0.00258676
0.00273518
0.00263545
0.00323906
0.00324698
0.00292807
0.00290801
0.00259094
0.00284161
0.00293841
0.00265624
0.00285937
0.00301961
0.00279643
0.00270287
0.000663896
0.00285757
0.00365916
0.0026292
0.00245696
0.00261363
0.00271179
0.00262353
0.0032059
0.00322089
0.00288792
0.00286645
0.00255694
0.00273988
0.00286178
0.002567
0.00266594
0.00282752
0.00263975
0.00248226
0.000723994
0.00279113
0.00366236
0.00264341
0.002438
0.00264198
0.00268963
0.0026064
0.00317578
0.0031918
0.00284166
0.0028204
0.00252122
0.00263304
0.00277205
0.00248327
0.00248091
0.00262131
0.00247927
0.00228676
0.000788459
0.00272291
0.00366007
0.00266096
0.00241617
0.00267101
0.00267025
0.00258284
0.0031479
0.00316142
0.00278753
0.00276831
0.00248645
0.00252432
0.0026677
0.00240181
0.0023041
0.00240522
0.00230887
0.0021105
0.000857318
0.00265347
0.00365143
0.00268211
0.00239156
0.00269959
0.00265523
0.00255199
0.00312086
0.00313222
0.00272477
0.00270721
0.00245415
0.00241784
0.00254825
0.00231828
0.00214512
0.00218569
0.00212503
0.00194665
0.0009305
0.00258358
0.0036356
0.00270692
0.00236444
0.00272639
0.00264599
0.00251348
0.00309228
0.00310653
0.00265396
0.00263437
0.00242395
0.00231773
0.00241486
0.00222667
0.00200445
0.00197099
0.00192724
0.00178776
0.00100786
0.00251404
0.00361177
0.00273552
0.00233519
0.00274972
0.00264366
0.00246744
0.00305867
0.00308613
0.00257839
0.00254739
0.00239351
0.00222836
0.00227068
0.00212145
0.0018775
0.00177048
0.00171915
0.00162578
0.00108917
0.00244568
0.00357911
0.0027681
0.00230448
0.00276732
0.00265038
0.00241458
0.0030161
0.00307208
0.00250352
0.00244487
0.00235814
0.00215237
0.00212104
0.00199797
0.00175938
0.00159098
0.00150861
0.00145385
0.00117406
0.0023796
0.00353688
0.00280463
0.0022733
0.0027763
0.00266639
0.00235737
0.00296041
0.0030635
0.00243564
0.00232747
0.00232418
0.00208934
0.00197383
0.00185533
0.00164071
0.00143369
0.0013066
0.00126985
0.00126192
0.00231702
0.00348459
0.00284473
0.00224309
0.00277353
0.00269118
0.00230025
0.00288901
0.00305683
0.00238033
0.00219802
0.00225438
0.00203593
0.00183777
0.00169844
0.00151095
0.00129318
0.00112318
0.00107949
0.00135192
0.00225938
0.00342197
0.00288745
0.00221617
0.002756
0.00272267
0.00225168
0.00280094
0.00304557
0.00234183
0.00206271
0.00216242
0.00198737
0.00171742
0.00153401
0.00136499
0.0011603
0.00096236
0.000894423
0.00144302
0.00220816
0.00334913
0.00293114
0.00219546
0.00272146
0.00275696
0.0022144
0.0026966
0.00302216
0.0023213
0.00192998
0.00204694
0.00193405
0.00161413
0.00136952
0.00120437
0.00102552
0.000820279
0.000724434
0.00153406
0.00216476
0.00326629
0.00297325
0.00218446
0.00266941
0.002787
0.00219287
0.00258065
0.00298048
0.00231596
0.00180879
0.00190899
0.00186774
0.00152705
0.00121367
0.0010336
0.000883415
0.000690789
0.000572643
0.00162377
0.00213027
0.00317303
0.00301057
0.00218619
0.00260182
0.00280497
0.00218855
0.00246129
0.00291729
0.00231883
0.00170583
0.0017549
0.00178182
0.00145159
0.00107273
0.000857696
0.000731438
0.000568077
0.000437938
0.00171095
0.00210555
0.00307574
0.00303923
0.00220256
0.0025233
0.00280326
0.00219983
0.00234745
0.0028323
0.00232113
0.00162382
0.00159452
0.0016738
0.00137991
0.000949921
0.000683198
0.000567608
0.000446572
0.000319514
0.00179451
0.00209126
0.00297492
0.00305481
0.00223403
0.00244096
0.00277579
0.00221893
0.0022472
0.00272885
0.00231493
0.00156216
0.00143621
0.00154493
0.00130496
0.000845725
0.000518681
0.000392265
0.000318044
0.000215993
0.00187353
0.00208752
0.0028737
0.00305379
0.00227865
0.00236284
0.00272048
0.002237
0.00216527
0.00261405
0.0022948
0.00151664
0.00128681
0.00139904
0.00122102
0.000756902
0.000371489
0.000212363
0.000173964
0.000120442
0.00194718
0.0020939
0.0027756
0.00303426
0.00233136
0.00229563
0.00263953
0.00224296
0.00210176
0.00249724
0.00225942
0.00148152
0.0011505
0.00124119
0.0011239
0.000677623
0.00024515
4.01152e-05
1.30502e-05
1.91984e-05
0.00201463
0.0021095
0.00268411
0.00299551
0.00238443
0.00224427
0.00254163
0.00222819
0.00205035
0.00238526
0.00221155
0.00145253
0.00102898
0.00107631
0.00101165
0.000602374
0.000138678
-0.000115336
-0.000155214
-0.000100474
0.00207531
0.00213285
0.00260227
0.00293863
0.00242952
0.00221085
0.0024381
0.00218921
0.00199931
0.00227977
0.00215703
0.00142847
0.000922691
0.000908712
0.000883759
0.000526597
4.92964e-05
-0.0002509
-0.000317004
-0.000238653
0.0021291
0.00216197
0.00253222
0.00286672
0.0024598
0.00219381
0.0023401
0.00212665
0.00193831
0.00217956
0.00209989
0.00140992
0.000832914
0.000743324
0.000740213
0.000445213
-2.59326e-05
-0.000367299
-0.000464498
-0.000383142
0.00217638
0.00219426
0.00247521
0.00278449
0.00247262
0.0021873
0.00225498
0.00204951
0.00186161
0.00207625
0.00204083
0.00139783
0.000762813
0.000586273
0.000582255
0.000351697
-9.11575e-05
-0.000464598
-0.000596272
-0.000520856
0.00221809
0.00222701
0.00243126
0.00269753
0.0024613
0.00218299
0.00218429
0.00197063
0.00176953
0.00196007
0.00197616
0.00139213
0.000714658
0.000443927
0.000415058
0.000240109
-0.000153398
-0.000542501
-0.000712369
-0.000646446
0.00225462
0.00225803
0.00239905
0.00261021
0.00242957
0.00217339
0.00212804
0.00189843
0.00166892
0.00182694
0.00189635
0.00139101
0.000689956
0.000324159
0.000247945
0.000109161
-0.000223103
-0.000603331
-0.000810447
-0.000760689
0.00228656
0.00228564
0.0023761
0.00252854
0.00238018
0.00215302
0.00207985
0.00183682
0.00157205
0.00167863
0.00179153
0.00138529
0.000687686
0.00023275
8.96548e-05
-3.51368e-05
-0.000309063
-0.00065543
-0.000887471
-0.000863585
0.00231462
0.00230861
0.00235924
0.00245467
0.00231689
0.00211767
0.00203345
0.00178685
0.00148716
0.00152363
0.00165937
0.00136047
0.000703236
0.000174768
-5.0189e-05
-0.000183294
-0.000412738
-0.000711097
-0.000944972
-0.00095152
0.00233881
0.00232638
0.00234492
0.00238963
0.00224726
0.00206603
0.00198268
0.00174486
0.00141791
0.00137652
0.00150427
0.00130506
0.000722546
0.000149295
-0.00016188
-0.000326583
-0.000528566
-0.00077922
-0.000991335
-0.00102066
0.00235944
0.00233893
0.00232988
0.00233292
0.00217698
0.00200037
0.00192238
0.00170486
0.00136439
0.00124681
0.00133623
0.00121627
0.000728298
0.000149643
-0.000238237
-0.000454005
-0.000647325
-0.000861056
-0.00103791
-0.00107184
0.00237655
0.00234643
0.00231193
0.00228236
0.00210936
0.00192628
0.00185094
0.00166055
0.00132391
0.0011392
0.00117105
0.00109938
0.000708787
0.000161149
-0.000281429
-0.000555023
-0.000759678
-0.000950365
-0.00109226
-0.0011117
0.00238936
0.00234955
0.00229036
0.00223425
0.00204692
0.00184917
0.00176866
0.00160695
0.00128959
0.00105373
0.00102036
0.000963762
0.000660091
0.000168198
-0.000298154
-0.000625191
-0.000855022
-0.00103786
-0.0011543
-0.00114897
0.00239722
0.00234862
0.00226517
0.00218615
0.00198989
0.0017735
0.00167796
0.00154185
0.00125426
0.000987781
0.000890994
0.000824247
0.00058648
0.000161084
-0.000300001
-0.000667259
-0.00092704
-0.00111407
-0.00121692
-0.00118838
0.00239976
0.0023435
0.00223674
0.00213664
0.00193584
0.00170192
0.00158325
0.00146516
0.00121312
0.000935417
0.000784521
0.000693261
0.000496164
0.000135514
-0.000297348
-0.000685228
-0.000974407
-0.00117233
-0.00127176
-0.00122758
0.00239642
0.002334
0.00220582
0.00208487
0.00188194
0.00163474
0.00148949
0.00137854
0.00116252
0.000889388
0.000698395
0.000578128
0.000401271
9.48073e-05
-0.000297441
-0.000685267
-0.000997889
-0.00120941
-0.0013112
-0.00126041
0.00238673
0.0023198
0.00217298
0.00203098
0.00182601
0.00157066
0.0013995
0.00128528
0.00110092
0.000844248
0.000629258
0.000480795
0.000312416
4.71434e-05
-0.000302851
-0.000672599
-0.000997258
-0.00122363
-0.0013307
-0.00127995
0.00237143
0.00230059
0.00213827
0.00197518
0.00176706
0.00150778
0.00131323
0.00118887
0.00102887
0.00079572
0.000572779
0.000401181
0.000234414
1.93762e-06
-0.000308692
-0.000650285
-0.000972472
-0.00121217
-0.00132642
-0.00127918
0.0023501
0.00227601
0.00210142
0.00191785
0.00170434
0.00144405
0.00122986
0.00109141
0.000947954
0.000740456
0.000522952
0.000338356
0.000170063
-3.45594e-05
-0.000307448
-0.000616939
-0.000923336
-0.00116973
-0.00129226
-0.00124997
0.00232288
0.00224614
0.00206175
0.00185931
0.00163803
0.00137702
0.00114771
0.000993561
0.00085961
0.000676827
0.000474015
0.000288467
0.000121092
-5.86306e-05
-0.000292052
-0.000566237
-0.000846535
-0.00108808
-0.00121825
-0.00118238
0.00229008
0.00221101
0.00201888
0.00179913
0.00156862
0.00130598
0.00106466
0.000894235
0.000762699
0.00060257
0.000422056
0.000246349
8.74113e-05
-6.65572e-05
-0.000256725
-0.00048786
-0.000731676
-0.000953084
-0.00108568
-0.00105936
0.00225229
0.00217071
0.00197223
0.00173734
0.00149577
0.00123046
0.000979421
0.000792307
0.000655358
0.000511746
0.000358957
0.000205464
6.63873e-05
-5.46188e-05
-0.000194505
-0.000371827
-0.000562842
-0.000742874
-0.00086017
-0.000840643
0.00221026
0.0021255
0.0019209
0.00167396
0.00142031
0.00114959
0.000889538
0.000685936
0.000537603
0.00040024
0.000269294
0.00014649
4.50227e-05
-2.47403e-05
-9.44655e-05
-0.000192777
-0.000314733
-0.000435038
-0.000511226
-0.000477992
0.00216496
0.00207519
0.00186578
0.00160809
0.00134217
0.00106334
0.000793526
0.000572681
0.000408354
0.000267527
0.000146109
4.17233e-05
-2.65745e-05
-2.48374e-05
2.89427e-05
9.28175e-05
0.000138836
0.000150142
0.000135914
0.000152503
0.0021165
0.00202076
0.00180785
0.00154105
0.00126111
0.000970483
0.000689905
0.000451296
0.000268045
0.000114974
-1.02514e-05
-0.000112054
-0.000184784
-0.000189526
-8.69094e-05
0.000157406
0.000582228
0.00113891
0.0016731
0.00203745
0.00206452
0.00196436
0.00174763
0.00147305
0.00117939
0.000871105
0.000575576
0.000318943
0.000117495
-4.93568e-05
-0.000179681
-0.000259373
-0.000249498
-7.02552e-05
0.000339136
0.000930424
0.00156306
0.00211165
0.00247806
0.00259796
0.00201061
0.00190706
0.00168534
0.00140391
0.00109833
0.000773271
0.000451899
0.000169444
-4.57546e-05
-0.000197855
-0.000268586
-0.000241628
-7.86599e-05
0.000291764
0.000833291
0.00142009
0.00194328
0.00235204
0.00261206
0.00267065
0.00195836
0.00184951
0.00162177
0.00133163
0.0010164
0.000687272
0.000353574
3.08559e-05
-0.000231162
-0.000391207
-0.000378491
-0.000132243
0.000305051
0.000837211
0.00139667
0.00192264
0.0023631
0.00268913
0.00287335
0.00286551
0.00190964
0.00179623
0.00156216
0.00125824
0.000925848
0.000586166
0.00028222
5.36307e-05
-7.98204e-05
-0.00013203
-0.000124507
-5.28844e-05
0.000102675
0.000389083
0.000864201
0.00150361
0.00216829
0.00271287
0.00304883
0.00311473
0.00186702
0.00174918
0.00150881
0.00120844
0.000876644
0.000521091
0.000173206
-0.000136002
-0.000327189
-0.000343637
-0.000162197
0.0001988
0.000678562
0.00119413
0.00169912
0.00216019
0.00254364
0.00282099
0.00295932
0.00291172
0.00183448
0.00170857
0.00145586
0.00114171
0.000796451
0.000439713
0.000120602
-0.000120856
-0.000241694
-0.00023066
-7.95283e-05
0.000221823
0.000639522
0.00110185
0.00156024
0.00199301
0.00237669
0.00267252
0.00283623
0.00281276
0.0168618
0.0105271
0.00212941
-0.00417644
-0.00588641
-0.00495088
-0.00388706
-0.0032276
-0.00270164
-0.00228176
-0.00205049
-0.00190083
-0.00182511
-0.00191012
-0.00200981
-0.00197996
-0.00192494
-0.00193216
-0.00196621
-0.00200364
-0.00203787
-0.00206859
-0.00211224
-0.00216232
-0.002208
-0.00225167
-0.00227857
-0.00228806
-0.0023058
-0.00233624
-0.00235974
-0.00236429
-0.00236762
-0.00238948
-0.00241454
-0.00242479
-0.00243433
-0.00244949
-0.00245716
-0.00245834
-0.00246495
-0.00248313
-0.00250444
-0.00252669
-0.00255696
-0.00259446
-0.00263009
-0.00266298
-0.0027012
-0.00274741
-0.00279632
-0.00283423
-0.00286818
-0.00290706
-0.00293562
-0.00295071
-0.00296886
-0.00299868
-0.00303799
-0.00307766
-0.00311928
-0.00316079
-0.00319678
-0.00322389
-0.00324132
-0.00326518
-0.00330089
-0.00335515
-0.00340719
-0.00344894
-0.00348753
-0.0035221
-0.00355309
-0.00358171
-0.00361051
-0.00363957
-0.0036666
-0.00367676
-0.00369066
-0.00370375
-0.00371237
-0.0037162
-0.00370674
-0.00369736
-0.00370127
-0.00369278
-0.00366703
-0.00364624
-0.00363519
-0.00362005
-0.00360229
-0.00358182
-0.00355952
-0.00353213
-0.00350817
-0.00349083
-0.00346682
-0.00344567
-0.00349732
-0.00353278
0.0160364
0.010351
0.00220892
-0.00402483
-0.00579494
-0.00490891
-0.00386284
-0.00321176
-0.00268992
-0.00227206
-0.00204227
-0.00189346
-0.00181814
-0.00190398
-0.00200468
-0.00197538
-0.0019207
-0.00192837
-0.00196282
-0.00200059
-0.00203513
-0.0020661
-0.00210996
-0.00216025
-0.0022061
-0.00224996
-0.00227701
-0.00228661
-0.00230443
-0.00233498
-0.00235859
-0.00236322
-0.00236659
-0.00238851
-0.00241363
-0.00242393
-0.00243349
-0.0024487
-0.0024564
-0.00245761
-0.00246424
-0.00248245
-0.0025038
-0.00252606
-0.00255636
-0.00259389
-0.00262955
-0.00266245
-0.00270069
-0.00274692
-0.00279586
-0.0028338
-0.00286776
-0.00290667
-0.00293525
-0.00295035
-0.00296851
-0.00299834
-0.00303766
-0.00307735
-0.00311898
-0.00316051
-0.00319651
-0.00322363
-0.00324107
-0.00326494
-0.00330066
-0.00335493
-0.00340699
-0.00344875
-0.00348735
-0.00352193
-0.00355293
-0.00358156
-0.00361037
-0.00363944
-0.00366648
-0.00367665
-0.00369055
-0.00370365
-0.00371228
-0.00371612
-0.00370666
-0.00369729
-0.00370121
-0.00369272
-0.00366698
-0.00364619
-0.00363514
-0.00362001
-0.00360225
-0.00358178
-0.00355949
-0.0035321
-0.00350814
-0.00349081
-0.0034668
-0.00344566
-0.00349731
-0.00353284
0.0152728
0.0101628
0.00237135
-0.00374108
-0.00563145
-0.00484818
-0.00383366
-0.00319102
-0.00267404
-0.00225989
-0.00203306
-0.00188619
-0.00181173
-0.00189814
-0.00199944
-0.00197061
-0.00191644
-0.00192467
-0.0019595
-0.00199758
-0.00203245
-0.00206369
-0.00210781
-0.00215832
-0.00220433
-0.00224836
-0.00227557
-0.00228526
-0.00230318
-0.00233384
-0.00235755
-0.00236225
-0.00236566
-0.00238764
-0.00241284
-0.00242317
-0.00243276
-0.00244801
-0.00245575
-0.00245697
-0.00246362
-0.00248185
-0.00250323
-0.00252552
-0.00255584
-0.00259339
-0.00262907
-0.00266199
-0.00270025
-0.0027465
-0.00279547
-0.00283343
-0.0028674
-0.00290632
-0.00293492
-0.00295004
-0.0029682
-0.00299804
-0.00303737
-0.00307707
-0.00311872
-0.00316027
-0.00319628
-0.00322341
-0.00324085
-0.00326473
-0.00330045
-0.00335474
-0.00340682
-0.00344858
-0.00348719
-0.00352178
-0.00355279
-0.00358143
-0.00361024
-0.00363933
-0.00366638
-0.00367655
-0.00369046
-0.00370357
-0.0037122
-0.00371605
-0.0037066
-0.00369723
-0.00370115
-0.00369268
-0.00366693
-0.00364614
-0.0036351
-0.00361997
-0.00360222
-0.00358175
-0.00355947
-0.00353208
-0.00350812
-0.00349079
-0.00346678
-0.00344563
-0.00349728
-0.00353291
0.0145422
0.00996521
0.00258377
-0.0033748
-0.00539996
-0.00475692
-0.00378761
-0.00315703
-0.00264861
-0.00224173
-0.00202031
-0.00187739
-0.00180499
-0.00189164
-0.00199274
-0.0019644
-0.00191126
-0.00192026
-0.00195538
-0.00199368
-0.00202891
-0.00206059
-0.00210511
-0.00215591
-0.00220211
-0.00224636
-0.0022738
-0.00228366
-0.00230171
-0.00233248
-0.00235631
-0.00236112
-0.00236462
-0.0023867
-0.00241198
-0.00242236
-0.00243199
-0.00244729
-0.00245507
-0.00245631
-0.00246297
-0.00248123
-0.00250263
-0.00252495
-0.00255529
-0.00259288
-0.00262858
-0.0026615
-0.00269978
-0.00274606
-0.00279506
-0.00283305
-0.00286702
-0.00290597
-0.00293459
-0.00294971
-0.00296788
-0.00299773
-0.00303708
-0.00307679
-0.00311845
-0.00316002
-0.00319605
-0.00322319
-0.00324063
-0.00326451
-0.00330024
-0.00335455
-0.00340664
-0.00344841
-0.00348703
-0.00352163
-0.00355265
-0.00358129
-0.00361012
-0.00363921
-0.00366627
-0.00367645
-0.00369036
-0.00370348
-0.00371212
-0.00371598
-0.00370653
-0.00369716
-0.00370109
-0.00369263
-0.00366688
-0.00364609
-0.00363506
-0.00361993
-0.00360219
-0.00358172
-0.00355944
-0.00353205
-0.0035081
-0.00349077
-0.00346676
-0.0034456
-0.00349723
-0.00353302
0.0138216
0.00974763
0.00280826
-0.00298102
-0.00513814
-0.00464924
-0.00373176
-0.00311297
-0.00261427
-0.00221704
-0.0020029
-0.00186596
-0.00179719
-0.00188377
-0.00198371
-0.001956
-0.00190467
-0.00191486
-0.00195021
-0.00198852
-0.00202405
-0.00205628
-0.00210135
-0.00215252
-0.00219894
-0.00224347
-0.00227131
-0.00228152
-0.00229976
-0.00233063
-0.00235459
-0.00235961
-0.0023633
-0.00238552
-0.00241091
-0.00242138
-0.0024311
-0.00244647
-0.0024543
-0.00245558
-0.00246226
-0.00248053
-0.00250196
-0.0025243
-0.00255469
-0.0025923
-0.00262802
-0.00266095
-0.00269924
-0.00274555
-0.0027946
-0.00283262
-0.00286661
-0.00290558
-0.00293422
-0.00294934
-0.00296752
-0.00299739
-0.00303674
-0.00307648
-0.00311816
-0.00315975
-0.00319579
-0.00322293
-0.00324037
-0.00326425
-0.00329999
-0.00335432
-0.00340644
-0.00344821
-0.00348684
-0.00352145
-0.00355248
-0.00358113
-0.00360997
-0.00363907
-0.00366614
-0.00367633
-0.00369025
-0.00370338
-0.00371202
-0.00371589
-0.00370645
-0.00369707
-0.00370102
-0.00369257
-0.00366682
-0.00364603
-0.00363501
-0.00361989
-0.00360215
-0.00358169
-0.00355941
-0.00353202
-0.00350807
-0.00349074
-0.00346673
-0.00344555
-0.00349715
-0.00353315
0.0131137
0.00950439
0.00302322
-0.00258162
-0.00486068
-0.00453354
-0.00367348
-0.00306511
-0.00257504
-0.00218803
-0.00198198
-0.00185225
-0.00178816
-0.00187437
-0.00197239
-0.00194545
-0.00189663
-0.00190844
-0.00194405
-0.0019822
-0.00201793
-0.00205076
-0.00209642
-0.00214791
-0.0021945
-0.00223933
-0.00226777
-0.00227862
-0.00229717
-0.00232807
-0.00235218
-0.00235754
-0.00236154
-0.00238393
-0.00240948
-0.00242012
-0.00243
-0.00244548
-0.0024534
-0.00245476
-0.00246147
-0.00247973
-0.00250118
-0.00252358
-0.00255401
-0.00259164
-0.00262736
-0.0026603
-0.00269861
-0.00274494
-0.00279405
-0.00283213
-0.00286614
-0.00290512
-0.00293377
-0.00294891
-0.00296712
-0.002997
-0.00303637
-0.00307612
-0.00311783
-0.00315944
-0.00319549
-0.00322264
-0.00324006
-0.00326394
-0.0032997
-0.00335406
-0.0034062
-0.00344798
-0.00348662
-0.00352123
-0.00355228
-0.00358094
-0.00360978
-0.00363889
-0.00366598
-0.00367618
-0.00369011
-0.00370325
-0.0037119
-0.00371579
-0.00370634
-0.00369697
-0.00370094
-0.0036925
-0.00366674
-0.00364596
-0.00363494
-0.00361983
-0.00360209
-0.00358164
-0.00355936
-0.00353198
-0.00350803
-0.00349071
-0.0034667
-0.00344549
-0.00349703
-0.0035333
0.0124266
0.00923426
0.00321891
-0.00218275
-0.00456905
-0.00440979
-0.00361419
-0.00301577
-0.00253276
-0.00215598
-0.00195863
-0.00183683
-0.00177797
-0.00186369
-0.00195943
-0.00193337
-0.00188746
-0.00190118
-0.00193713
-0.00197504
-0.00201096
-0.0020444
-0.00209058
-0.00214223
-0.00218877
-0.00223379
-0.00226299
-0.0022748
-0.00229379
-0.0023247
-0.00234896
-0.00235482
-0.00235926
-0.00238182
-0.00240754
-0.00241846
-0.00242858
-0.00244422
-0.00245231
-0.00245383
-0.00246059
-0.00247882
-0.00250029
-0.00252277
-0.00255325
-0.00259087
-0.00262657
-0.00265952
-0.00269783
-0.00274419
-0.00279338
-0.00283154
-0.00286559
-0.00290457
-0.00293322
-0.00294841
-0.00296667
-0.00299656
-0.00303592
-0.0030757
-0.00311746
-0.00315911
-0.00319515
-0.00322228
-0.00323969
-0.00326358
-0.00329936
-0.00335375
-0.00340591
-0.00344768
-0.00348633
-0.00352095
-0.00355202
-0.0035807
-0.00360955
-0.00363867
-0.00366578
-0.00367599
-0.00368993
-0.00370308
-0.00371175
-0.00371565
-0.0037062
-0.00369684
-0.00370083
-0.0036924
-0.00366664
-0.00364587
-0.00363486
-0.00361975
-0.00360203
-0.00358158
-0.00355931
-0.00353193
-0.00350797
-0.00349066
-0.00346664
-0.00344539
-0.00349685
-0.00353346
0.0117671
0.0089394
0.00339096
-0.00178581
-0.00426148
-0.00427574
-0.00355363
-0.00296602
-0.00248839
-0.00212151
-0.00193334
-0.00181997
-0.00176674
-0.00185211
-0.00194548
-0.00192031
-0.00187749
-0.00189329
-0.00192964
-0.00196734
-0.00200349
-0.00203763
-0.00208428
-0.00213588
-0.00218208
-0.00222707
-0.00225706
-0.00227003
-0.00228961
-0.00232049
-0.00234495
-0.00235146
-0.00235644
-0.00237917
-0.00240502
-0.0024163
-0.00242675
-0.0024426
-0.00245093
-0.00245273
-0.00245959
-0.00247778
-0.00249928
-0.00252188
-0.00255243
-0.00259001
-0.00262567
-0.0026586
-0.00269689
-0.00274325
-0.00279252
-0.00283084
-0.00286496
-0.00290392
-0.00293256
-0.00294782
-0.00296615
-0.00299604
-0.00303539
-0.00307521
-0.00311705
-0.00315874
-0.00319477
-0.00322187
-0.00323924
-0.00326313
-0.00329894
-0.00335337
-0.00340554
-0.00344731
-0.00348596
-0.00352059
-0.00355168
-0.00358038
-0.00360925
-0.00363837
-0.00366549
-0.00367573
-0.0036897
-0.00370286
-0.00371153
-0.00371546
-0.00370602
-0.00369667
-0.00370068
-0.00369226
-0.0036665
-0.00364574
-0.00363475
-0.00361965
-0.00360193
-0.0035815
-0.00355922
-0.00353185
-0.0035079
-0.00349059
-0.00346657
-0.00344527
-0.0034966
-0.00353363
0.0111393
0.0086256
0.00353862
-0.00139186
-0.0039381
-0.00413069
-0.00349244
-0.0029174
-0.0024431
-0.00208513
-0.00190628
-0.00180176
-0.00175463
-0.00183993
-0.00193091
-0.00190656
-0.00186688
-0.00188487
-0.00192169
-0.00195923
-0.00199568
-0.00203063
-0.00207777
-0.0021292
-0.00217484
-0.00221955
-0.00225026
-0.00226447
-0.0022847
-0.00231556
-0.00234025
-0.00234755
-0.00235319
-0.00237603
-0.00240198
-0.00241364
-0.00242445
-0.00244054
-0.00244922
-0.00245142
-0.00245845
-0.0024766
-0.00249812
-0.00252089
-0.00255154
-0.00258908
-0.00262466
-0.00265756
-0.00269578
-0.00274208
-0.00279143
-0.00282996
-0.00286421
-0.00290313
-0.00293177
-0.00294714
-0.00296556
-0.00299542
-0.00303473
-0.0030746
-0.00311655
-0.00315833
-0.00319436
-0.00322139
-0.00323871
-0.0032626
-0.00329844
-0.00335289
-0.00340507
-0.00344684
-0.00348549
-0.00352012
-0.00355123
-0.00357997
-0.00360885
-0.00363797
-0.0036651
-0.00367539
-0.0036894
-0.00370256
-0.00371125
-0.0037152
-0.00370578
-0.00369645
-0.00370048
-0.00369207
-0.00366631
-0.00364557
-0.00363459
-0.00361951
-0.0036018
-0.00358138
-0.00355911
-0.00353175
-0.0035078
-0.0034905
-0.00346647
-0.00344511
-0.00349628
-0.00353377
0.0105464
0.00830129
0.0036619
-0.00100537
-0.00360245
-0.00397525
-0.00343123
-0.00287118
-0.0023978
-0.00204698
-0.00187731
-0.00178216
-0.00174172
-0.00182726
-0.0019158
-0.00189218
-0.00185571
-0.001876
-0.00191336
-0.00195074
-0.00198754
-0.00202335
-0.00207103
-0.00212228
-0.00216727
-0.00221158
-0.0022429
-0.00225835
-0.00227924
-0.00231007
-0.00233502
-0.00234323
-0.0023496
-0.00237255
-0.00239854
-0.00241057
-0.00242175
-0.00243807
-0.00244713
-0.00244985
-0.00245715
-0.00247528
-0.00249684