/*--------------------------------*- C++ -*----------------------------------*\
| =========                 |                                                 |
| \\      /  F ield         | OpenFOAM: The Open Source CFD Toolbox           |
|  \\    /   O peration     | Version:  2106                                  |
|   \\  /    A nd           | Website:  www.openfoam.com                      |
|    \\/     M anipulation  |                                                 |
\*---------------------------------------------------------------------------*/
FoamFile
{
    version     2.0;
    format      ascii;
    arch        "LSB;label=32;scalar=64";
    class       volScalarField;
    location    "0.575";
    object      p;
}
// * * * * * * * * * * * * * * * * * * * * * * * * * * * * * * * * * * * * * //

dimensions      [0 2 -2 0 0 0 0];

internalField   nonuniform List<scalar> 
9600
(
6.98781e-11
-0.000246292
-0.00116702
0.000833243
0.00447368
0.00165228
0.000231566
-0.000440541
-0.00127445
-0.000754011
-0.00177261
-0.00109863
-0.00209703
-0.00210627
-0.00183243
-0.00103056
-0.000760926
0.0018307
0.00296572
0.00771413
2.10574e-06
-0.000256488
-0.00116523
0.000839465
0.00440801
0.00164362
0.000242608
-0.000450563
-0.00126233
-0.000825042
-0.00177639
-0.00110043
-0.00209397
-0.00210597
-0.00182399
-0.00103763
-0.000745529
0.00175074
0.00300317
0.00712045
3.48799e-06
-0.000267656
-0.00116034
0.000846238
0.00433818
0.00163335
0.000252473
-0.000465084
-0.00124624
-0.000848528
-0.0017755
-0.00110611
-0.0020901
-0.00210122
-0.00181574
-0.00104538
-0.000727458
0.00168954
0.00299484
0.0065572
3.41558e-06
-0.000278083
-0.00115314
0.000851386
0.00426385
0.00162085
0.000258571
-0.000483508
-0.00122894
-0.000866816
-0.00177118
-0.00111888
-0.00208703
-0.00209325
-0.00180884
-0.00105728
-0.000706608
0.00160758
0.00296194
0.00602427
2.28533e-06
-0.000287595
-0.00114359
0.000854564
0.00418434
0.00160574
0.000262516
-0.000505873
-0.00120988
-0.000881285
-0.00176632
-0.00113833
-0.00208397
-0.00208474
-0.00180175
-0.00107317
-0.000686826
0.00151795
0.00290641
0.00552661
3.89626e-07
-0.000296048
-0.00113205
0.000855116
0.00410035
0.00158854
0.000265076
-0.000531366
-0.00118876
-0.000893825
-0.00176269
-0.00116213
-0.00208022
-0.00207683
-0.0017931
-0.00109264
-0.000667901
0.00142124
0.00282815
0.00505475
-2.04152e-06
-0.000303534
-0.00111932
0.000852958
0.00401311
0.00156953
0.000266493
-0.000558875
-0.00116614
-0.000905884
-0.00176052
-0.00118818
-0.00207586
-0.00207011
-0.00178253
-0.00111488
-0.000651631
0.00131903
0.00272567
0.00460473
-4.77027e-06
-0.000310406
-0.00110605
0.000848576
0.00392359
0.00154871
0.000267028
-0.000587637
-0.00114267
-0.000917995
-0.00175951
-0.00121542
-0.00207121
-0.00206482
-0.00177059
-0.0011394
-0.000640093
0.00121306
0.00259826
0.00417453
-7.60456e-06
-0.000317106
-0.00109257
0.000842567
0.00383236
0.0015261
0.000266862
-0.000617278
-0.00111881
-0.000930452
-0.00175943
-0.00124337
-0.00206648
-0.00206109
-0.00175824
-0.00116556
-0.000634961
0.00110434
0.00244659
0.00376165
-1.04293e-05
-0.000324018
-0.00107897
0.000835384
0.00373971
0.00150175
0.00026606
-0.000647652
-0.00109488
-0.000943267
-0.00176022
-0.00127168
-0.00206187
-0.00205902
-0.00174646
-0.00119258
-0.000637813
0.000993195
0.00227245
0.00336263
-1.31962e-05
-0.000331407
-0.00106521
0.000827309
0.00364578
0.00147573
0.000264624
-0.000678717
-0.0010711
-0.000956333
-0.00176195
-0.00130004
-0.00205776
-0.00205842
-0.00173624
-0.00121999
-0.000649911
0.000879439
0.00207832
0.00297364
-1.58988e-05
-0.000339434
-0.00105126
0.000818473
0.00355064
0.00144804
0.00026251
-0.000710443
-0.00104766
-0.000969681
-0.00176482
-0.00132813
-0.00205455
-0.00205886
-0.00172852
-0.00124761
-0.000671987
0.000762158
0.00186739
0.00259134
-1.85503e-05
-0.00034818
-0.00103716
0.000808878
0.0034543
0.00141863
0.000259643
-0.000742779
-0.00102474
-0.000982711
-0.00176909
-0.0013557
-0.0020527
-0.00205989
-0.00172402
-0.00127542
-0.000704239
0.000639422
0.00164362
0.00221381
-2.11699e-05
-0.000357684
-0.00102296
0.000798444
0.0033568
0.00138745
0.000255912
-0.000775655
-0.00100261
-0.000995319
-0.00177515
-0.00138243
-0.00205269
-0.00206116
-0.00172326
-0.0013038
-0.000746494
0.0005086
0.00141124
0.00184098
-2.37781e-05
-0.000367961
-0.0010088
0.000787061
0.00325817
0.00135443
0.000251169
-0.000808965
-0.00098156
-0.0010072
-0.00178346
-0.00140797
-0.00205481
-0.00206251
-0.00172644
-0.00133382
-0.000797961
0.000367448
0.0011726
0.00147376
-2.63957e-05
-0.000379025
-0.000994799
0.000774614
0.00315847
0.00131952
0.000245235
-0.000842549
-0.000961954
-0.00101797
-0.00179449
-0.00143202
-0.00205928
-0.0020641
-0.00173335
-0.00136733
-0.000857021
0.000214014
0.000927977
0.00111304
-2.90436e-05
-0.000390891
-0.0009811
0.000760998
0.00305775
0.00128272
0.000237912
-0.000876212
-0.00094423
-0.00102724
-0.00180859
-0.0014544
-0.00206631
-0.00206637
-0.00174328
-0.00140652
-0.000922482
4.85121e-05
0.000677018
0.000760004
-3.17442e-05
-0.000403574
-0.000967853
0.000746125
0.00295606
0.00124404
0.000228987
-0.000909733
-0.000928866
-0.00103467
-0.0018261
-0.00147501
-0.00207579
-0.00207017
-0.00175508
-0.00145357
-0.000994357
-0.000127076
0.000418449
0.000415676
-3.45196e-05
-0.00041709
-0.000955212
0.000729923
0.00285346
0.00120353
0.000218211
-0.000942856
-0.000916382
-0.00103996
-0.00184725
-0.001494
-0.00208726
-0.00207693
-0.00176711
-0.00150977
-0.00107362
-0.000309757
0.000150709
7.99296e-05
-3.73909e-05
-0.000431454
-0.000943342
0.000712329
0.00275001
0.00116133
0.000205273
-0.000975301
-0.000907245
-0.00104288
-0.00187213
-0.00151177
-0.00209989
-0.00208846
-0.00177822
-0.00157553
-0.00116216
-0.000496028
-0.000126426
-0.000248244
-4.03808e-05
-0.000446679
-0.000932417
0.000693295
0.00264575
0.00111758
0.000189828
-0.00100681
-0.000901861
-0.00104334
-0.00190073
-0.00152902
-0.00211242
-0.00210658
-0.00178859
-0.00165058
-0.00126147
-0.000682528
-0.000411095
-0.000571133
-4.35107e-05
-0.000462782
-0.00092263
0.000672801
0.00254072
0.00107246
0.000171548
-0.00103716
-0.00090067
-0.00104124
-0.00193269
-0.00154687
-0.0021234
-0.0021326
-0.00179702
-0.00173325
-0.00137664
-0.000867532
-0.000699801
-0.000892302
-4.68034e-05
-0.000479764
-0.0009142
0.000650844
0.00243493
0.00102618
0.000150077
-0.00106616
-0.000903943
-0.00103672
-0.00196726
-0.00156685
-0.00213167
-0.00216728
-0.00180963
-0.00182079
-0.00150871
-0.00105129
-0.000987846
-0.00121545
-5.02892e-05
-0.000497617
-0.000907377
0.000627431
0.00232839
0.000978967
0.000125105
-0.00109376
-0.000911812
-0.00103037
-0.00200331
-0.00159047
-0.00213653
-0.00221105
-0.00182688
-0.00191021
-0.00165861
-0.00123549
-0.00126965
-0.00154283
-5.39984e-05
-0.000516323
-0.000902441
0.000602589
0.00222109
0.000931048
9.64251e-05
-0.00112003
-0.000924264
-0.00102294
-0.00203965
-0.00161905
-0.00213759
-0.00226373
-0.00185161
-0.00199936
-0.00182594
-0.00142297
-0.00153947
-0.00187406
-5.7963e-05
-0.00053585
-0.000899725
0.000576372
0.00211303
0.000882587
6.39215e-05
-0.00114521
-0.00094101
-0.00101526
-0.00207516
-0.00165371
-0.00213505
-0.00232439
-0.00188713
-0.00208906
-0.00200863
-0.00161763
-0.00179254
-0.00220542
-6.22362e-05
-0.000556145
-0.00089959
0.000548877
0.00200417
0.000833654
2.76844e-05
-0.0011697
-0.000961616
-0.00100833
-0.00210897
-0.00169528
-0.00212978
-0.00239154
-0.00193637
-0.00217239
-0.00220308
-0.00182382
-0.00202654
-0.00252955
-6.69029e-05
-0.000577095
-0.00090242
0.000520177
0.00189451
0.000784273
-1.19931e-05
-0.00119426
-0.000985273
-0.00100306
-0.00214083
-0.00174399
-0.00212312
-0.00246375
-0.00200152
-0.00225196
-0.00240451
-0.00204595
-0.00224296
-0.00283631
-7.20575e-05
-0.000598568
-0.000908654
0.000490367
0.0017841
0.000734324
-5.45463e-05
-0.00121985
-0.00101111
-0.000999833
-0.00217095
-0.00179984
-0.00211639
-0.00253996
-0.00208427
-0.00232779
-0.00260712
-0.00228758
-0.0024477
-0.00311512
-7.78091e-05
-0.000620445
-0.000918808
0.000459566
0.00167313
0.000683478
-9.91017e-05
-0.00124752
-0.00103892
-0.000998701
-0.00219999
-0.00186308
-0.00211071
-0.00261893
-0.0021858
-0.00240104
-0.0028043
-0.00254953
-0.00265027
-0.00335788
-8.43202e-05
-0.000642469
-0.000933418
0.000427741
0.00156192
0.000631249
-0.000144627
-0.00127815
-0.00106624
-0.000999497
-0.00222885
-0.00193422
-0.00210714
-0.00269877
-0.00230697
-0.00247452
-0.002989
-0.00282803
-0.00286268
-0.0035637
-9.17939e-05
-0.000664319
-0.000952999
0.0003947
0.00145098
0.000577004
-0.000189951
-0.00131226
-0.00109692
-0.00100185
-0.00225799
-0.00201419
-0.00210703
-0.00277691
-0.00244809
-0.00255259
-0.0031554
-0.00311483
-0.00309585
-0.00374199
-0.000100464
-0.000685773
-0.00097802
0.000360198
0.00134096
0.0005199
-0.00023389
-0.00135002
-0.00113312
-0.00100495
-0.00228724
-0.00210452
-0.00211218
-0.00284994
-0.00260806
-0.00264111
-0.00330112
-0.0034
-0.00335401
-0.00390805
-0.000110656
-0.000706748
-0.00100875
0.000323747
0.00123269
0.000458879
-0.000275602
-0.00139089
-0.00117578
-0.00100846
-0.00231571
-0.00220686
-0.00212519
-0.0029139
-0.0027837
-0.00274665
-0.00342778
-0.00367429
-0.00363373
-0.00407803
-0.000122723
-0.000737517
-0.00104534
0.000284472
0.0011273
0.000392991
-0.000315
-0.00143342
-0.00122666
-0.00101307
-0.00234146
-0.00232233
-0.00214955
-0.00296507
-0.00297034
-0.00287504
-0.00353952
-0.00393029
-0.00392835
-0.0042631
-0.000136935
-0.000754229
-0.00108775
0.000241201
0.00102612
0.000321552
-0.000352581
-0.00147561
-0.00128762
-0.00102025
-0.00236183
-0.00245082
-0.00218974
-0.00300136
-0.0031615
-0.00303033
-0.00364203
-0.00416194
-0.0042309
-0.00446865
-0.000153677
-0.000768477
-0.00113566
0.000192441
0.00093043
0.000244236
-0.000389627
-0.00151443
-0.00135972
-0.0010333
-0.00237388
-0.0025906
-0.00225148
-0.00302346
-0.00334844
-0.00321397
-0.00374355
-0.00436426
-0.00453308
-0.00469721
-0.000173406
-0.000780148
-0.00118834
0.00013622
0.000841396
0.000161493
-0.000428739
-0.00154677
-0.00144244
-0.00105732
-0.00237589
-0.00273825
-0.0023397
-0.00303575
-0.00352096
-0.00342295
-0.00385472
-0.00453577
-0.00482353
-0.00494898
-0.000196606
-0.000788968
-0.00124468
7.01662e-05
0.000759623
7.48907e-05
-0.000473487
-0.00157067
-0.00153326
-0.00109698
-0.00236824
-0.00288612
-0.00245604
-0.00304603
-0.0036714
-0.00364994
-0.0039859
-0.00468113
-0.00508972
-0.0052195
-0.000223799
-0.000794828
-0.00130314
-7.89714e-06
0.000684901
-1.30518e-05
-0.000527615
-0.00158565
-0.001628
-0.00115598
-0.00235458
-0.0030258
-0.00259892
-0.00306394
-0.00379741
-0.00388561
-0.00414322
-0.00481006
-0.00532229
-0.00549773
-0.000255525
-0.000797809
-0.00136187
-9.97063e-05
0.000615977
-9.9157e-05
-0.000594038
-0.00159228
-0.00172139
-0.00123714
-0.00234084
-0.00315087
-0.00276454
-0.00309759
-0.00389985
-0.00412024
-0.00432746
-0.00493525
-0.005519
-0.00576801
-0.000292329
-0.00079822
-0.00141868
-0.000206562
0.000550416
-0.000179619
-0.000673789
-0.00159408
-0.00180782
-0.00134057
-0.00233475
-0.00325759
-0.00294557
-0.00315249
-0.00398178
-0.00434428
-0.00453492
-0.00506845
-0.00568456
-0.00601475
-0.000334664
-0.00079669
-0.00147119
-0.000328971
0.000484432
-0.000251075
-0.00076663
-0.00159663
-0.00188343
-0.00146227
-0.00234447
-0.00334787
-0.00313389
-0.00323156
-0.00404862
-0.00454932
-0.00475854
-0.00521758
-0.00582857
-0.00622723
-0.000382789
-0.000794186
-0.00151726
-0.000466416
0.000413337
-0.000311513
-0.000870473
-0.00161179
-0.00194657
-0.00159411
-0.00237354
-0.00342589
-0.00332384
-0.00333516
-0.0041072
-0.00473015
-0.0049894
-0.00538561
-0.00596384
-0.00640402
-0.000436799
-0.000792122
-0.00155491
-0.000616965
0.000331966
-0.000360305
-0.00098101
-0.00164204
-0.00199763
-0.00172767
-0.00242261
-0.00349696
-0.00351136
-0.00346206
-0.00416497
-0.00488578
-0.00521858
-0.00556978
-0.006101
-0.00655288
-0.000496711
-0.000792161
-0.00158249
-0.000777264
0.000235174
-0.000397922
-0.0010928
-0.00169123
-0.0020409
-0.00185567
-0.00248971
-0.00356518
-0.00369303
-0.00360949
-0.00422903
-0.00501853
-0.00543786
-0.00576356
-0.006244
-0.00668652
-0.00056222
-0.000796279
-0.00159915
-0.000942814
0.000118887
-0.000427526
-0.00119983
-0.0017609
-0.00208093
-0.00197477
-0.00256938
-0.00363414
-0.00386665
-0.00377281
-0.004305
-0.00513144
-0.00564191
-0.00596216
-0.00639073
-0.00681414
-0.00063262
-0.000806583
-0.00160481
-0.00110871
-1.95925e-05
-0.000457225
-0.00129682
-0.00185014
-0.0021307
-0.00208412
-0.00265631
-0.00370526
-0.00403122
-0.00394683
-0.00439586
-0.0052297
-0.00582823
-0.00616343
-0.00653926
-0.00693525
-0.0007072
-0.000824549
-0.0016004
-0.00127076
-0.000181712
-0.000492345
-0.00138092
-0.00195376
-0.00219238
-0.00218649
-0.00274789
-0.00377874
-0.00418611
-0.00412655
-0.00450155
-0.00532026
-0.00599518
-0.00636479
-0.00669219
-0.00704568
-0.000785167
-0.000851328
-0.00158839
-0.00142107
-0.000366807
-0.000539233
-0.00145159
-0.00206446
-0.00226788
-0.00228548
-0.00284249
-0.00385526
-0.00433115
-0.0043055
-0.00461844
-0.00540905
-0.00614369
-0.006561
-0.00685333
-0.00714878
-0.000865371
-0.000887813
-0.00157213
-0.0015587
-0.000570913
-0.000604291
-0.00151086
-0.00217705
-0.00235779
-0.00238359
-0.00293857
-0.00393658
-0.00446851
-0.00447842
-0.00474136
-0.00549739
-0.00627796
-0.00674725
-0.0070223
-0.00725427
-0.000946913
-0.000934392
-0.00155594
-0.00168116
-0.000787498
-0.000692324
-0.00156475
-0.00228799
-0.00246082
-0.00248333
-0.00303474
-0.00402324
-0.00460029
-0.00464406
-0.00486349
-0.00558097
-0.00640097
-0.00692368
-0.00719513
-0.00737009
-0.0010291
-0.000991036
-0.00154491
-0.00178702
-0.00100884
-0.000805816
-0.00161989
-0.00239496
-0.00257525
-0.00258584
-0.00313025
-0.00411531
-0.00473099
-0.00480406
-0.00498066
-0.00565447
-0.00650854
-0.0070924
-0.00736919
-0.00749712
-0.00111159
-0.00105753
-0.00154198
-0.00187595
-0.00122801
-0.000945346
-0.00168212
-0.00249704
-0.00269971
-0.00269322
-0.00322203
-0.00421083
-0.00486606
-0.00496044
-0.00509196
-0.00571307
-0.00659377
-0.0072503
-0.00754557
-0.00763245
-0.00119414
-0.00113296
-0.00154976
-0.00194982
-0.00143996
-0.00110813
-0.00175599
-0.00259545
-0.00283198
-0.00280842
-0.00330801
-0.00430462
-0.00500852
-0.00512212
-0.0051995
-0.00575361
-0.00664816
-0.00738708
-0.00772538
-0.00777754
-0.00127675
-0.0012158
-0.00156993
-0.00201292
-0.00164102
-0.00128855
-0.00184406
-0.00269349
-0.00297047
-0.0029322
-0.00339057
-0.00438973
-0.00515314
-0.00529884
-0.00531116
-0.00577718
-0.00666389
-0.00748945
-0.00790185
-0.00793833
-0.00135978
-0.00130464
-0.00160308
-0.00207009
-0.0018296
-0.00148071
-0.0019471
-0.00279341
-0.00311558
-0.0030654
-0.00347151
-0.00446197
-0.00529297
-0.00549093
-0.00544308
-0.00579234
-0.00663821
-0.00754038
-0.00805798
-0.00811747
-0.00144361
-0.00139821
-0.00164946
-0.00212498
-0.00200453
-0.00167938
-0.00206393
-0.00289593
-0.00326756
-0.00321138
-0.00355272
-0.00451876
-0.00541806
-0.00569115
-0.0056059
-0.0058175
-0.00657933
-0.00752833
-0.00817118
-0.0083022
-0.00152872
-0.00149557
-0.00170821
-0.00218028
-0.00216724
-0.00188061
-0.0021924
-0.00300109
-0.00342565
-0.00337277
-0.00363841
-0.00456016
-0.00551835
-0.00589009
-0.00580089
-0.00587451
-0.00650421
-0.00745557
-0.00821769
-0.00846836
-0.00161538
-0.00159619
-0.00177782
-0.00223833
-0.00232037
-0.00208243
-0.00233003
-0.00310639
-0.00358785
-0.0035522
-0.00373464
-0.00458868
-0.00558911
-0.00606955
-0.00601886
-0.00597896
-0.00644178
-0.00733749
-0.00818615
-0.00858518
-0.00170381
-0.00169974
-0.00185725
-0.00230022
-0.00246503
-0.00228374
-0.00247616
-0.00320944
-0.00374969
-0.00375095
-0.00384966
-0.00460654
-0.00562982
-0.00621756
-0.00624384
-0.00613574
-0.00641988
-0.00720101
-0.00808564
-0.00862398
-0.00179419
-0.00180604
-0.00194572
-0.00236641
-0.0026018
-0.00248417
-0.00263065
-0.00331013
-0.00390341
-0.00396365
-0.00399377
-0.00462346
-0.0056382
-0.00633063
-0.00645457
-0.00633122
-0.00645932
-0.00707872
-0.00793528
-0.0085745
-0.00188659
-0.00191484
-0.00204273
-0.00243732
-0.00273084
-0.00268251
-0.00279417
-0.00340991
-0.00404299
-0.0041826
-0.00417099
-0.00465795
-0.00561751
-0.00640142
-0.00664062
-0.00654537
-0.00656095
-0.00699708
-0.00776263
-0.00845086
-0.00198117
-0.00202579
-0.00214759
-0.00251369
-0.00285222
-0.00287655
-0.00296759
-0.00351164
-0.00416518
-0.00439714
-0.00437721
-0.00472504
-0.00558335
-0.0064246
-0.00679122
-0.00675659
-0.00670736
-0.00697366
-0.00759551
-0.00827264
-0.00207803
-0.00213846
-0.00225947
-0.0025964
-0.0029663
-0.0030639
-0.00314986
-0.00361986
-0.00427125
-0.00459478
-0.00460411
-0.00483269
-0.00555716
-0.00640764
-0.00689201
-0.00694755
-0.00687707
-0.00700728
-0.00746109
-0.00806789
-0.00217725
-0.00225225
-0.00237744
-0.00268622
-0.00307405
-0.00324201
-0.00333842
-0.00373892
-0.00436593
-0.00476678
-0.00483852
-0.00498346
-0.00555559
-0.00636354
-0.00693849
-0.0071003
-0.00704681
-0.00708157
-0.00737625
-0.00786787
-0.00227894
-0.00236653
-0.00250024
-0.0027838
-0.00317688
-0.0034082
-0.0035295
-0.00387123
-0.00445536
-0.00491181
-0.00506176
-0.00516825
-0.00559412
-0.0063105
-0.00693554
-0.00720228
-0.00719625
-0.00717702
-0.00733932
-0.00769889
-0.00238307
-0.00248073
-0.00262616
-0.00288924
-0.00327672
-0.00356094
-0.00371878
-0.0040166
-0.00454643
-0.00503415
-0.00526117
-0.00537077
-0.00567996
-0.00627171
-0.00689198
-0.00724741
-0.00730992
-0.00727261
-0.0073355
-0.00756984
-0.00248948
-0.00259439
-0.00275304
-0.00300183
-0.00337577
-0.0037001
-0.00390145
-0.0041727
-0.0046447
-0.00513916
-0.00543328
-0.00557202
-0.00580285
-0.00626814
-0.00682976
-0.0072368
-0.00737583
-0.00735096
-0.00734843
-0.00747493
-0.00259772
-0.00270712
-0.00287872
-0.00311993
-0.00347626
-0.00382686
-0.00407285
-0.00433487
-0.00475354
-0.00523302
-0.00557797
-0.00575971
-0.00594744
-0.00630466
-0.00677845
-0.00718363
-0.00738497
-0.00739653
-0.00736101
-0.00740454
-0.002707
-0.00281862
-0.00300123
-0.00324118
-0.00357969
-0.00394323
-0.00422964
-0.00449731
-0.00487327
-0.00532328
-0.00569738
-0.00592647
-0.00609952
-0.00637047
-0.00675386
-0.00711421
-0.00734146
-0.00739621
-0.00735791
-0.0073503
-0.00281617
-0.0029285
-0.00311915
-0.00336255
-0.00368625
-0.0040518
-0.00437035
-0.0046539
-0.00500068
-0.00541602
-0.00579695
-0.00606581
-0.0062469
-0.00645383
-0.00675352
-0.00705335
-0.00726449
-0.00734763
-0.00732718
-0.00730312
-0.00292367
-0.00303608
-0.00323162
-0.00348079
-0.00379439
-0.00415502
-0.00449553
-0.00479903
-0.00512998
-0.00551333
-0.00588357
-0.0061751
-0.00637684
-0.00654398
-0.00676695
-0.00700666
-0.00717955
-0.00726567
-0.00726956
-0.00725905
-0.00302764
-0.00314022
-0.00333813
-0.0035929
-0.00390127
-0.00425443
-0.00460681
-0.00492883
-0.00525479
-0.00561314
-0.00596508
-0.00625947
-0.00647853
-0.00662916
-0.00678708
-0.00696903
-0.00710362
-0.00717638
-0.00720114
-0.0072208
-0.00312615
-0.0032392
-0.00343795
-0.00369679
-0.00400348
-0.00434986
-0.00470608
-0.0050419
-0.00536879
-0.00570942
-0.00604439
-0.00632915
-0.00655279
-0.00670093
-0.00681103
-0.00693621
-0.00703913
-0.00709924
-0.00713808
-0.00718841
-0.00321707
-0.0033309
-0.00352973
-0.003791
-0.00409777
-0.00443929
-0.00479495
-0.0051388
-0.00546844
-0.00579592
-0.00611587
-0.00639018
-0.00660852
-0.00675874
-0.00684076
-0.00691278
-0.00698325
-0.00703188
-0.00707842
-0.00715268
-0.00329814
-0.00341282
-0.00361169
-0.00387396
-0.00418122
-0.00451972
-0.00487347
-0.00522051
-0.00555228
-0.00586943
-0.00617341
-0.00643705
-0.00664855
-0.00680647
-0.0068912
-0.0069324
-0.00696709
-0.00698938
-0.00701849
-0.00709042
-0.00336691
-0.0034823
-0.0036812
-0.00394363
-0.00425113
-0.00458784
-0.00493929
-0.00528672
-0.00562026
-0.00593214
-0.0062217
-0.00646902
-0.00665689
-0.00679699
-0.00688627
-0.00693226
-0.00697381
-0.00702054
-0.0070798
-0.00717467
-0.00342096
-0.00353684
-0.00373566
-0.0039976
-0.00430423
-0.00463938
-0.00498863
-0.00533424
-0.00566729
-0.00597722
-0.00625989
-0.00650466
-0.00669524
-0.00682825
-0.00691064
-0.00694278
-0.00695112
-0.00696462
-0.00700283
-0.00709238
-0.00345878
-0.00357689
-0.00377739
-0.00404056
-0.00434762
-0.00468257
-0.00503133
-0.00537604
-0.00570756
-0.00601565
-0.00629335
-0.0065307
-0.00671506
-0.00684026
-0.00691651
-0.00695021
-0.00696175
-0.00697922
-0.00702428
-0.00712148
0.010411
0.00399026
-0.0045057
-0.0109192
-0.0130066
-0.012434
-0.0115849
-0.011246
-0.0112855
-0.0113686
-0.0113391
-0.011304
-0.0113565
-0.0114785
-0.0116961
-0.0119723
-0.0121694
-0.0122865
-0.0124228
-0.0125825
-0.0127295
-0.0128846
-0.0130605
-0.013241
-0.013437
-0.0136645
-0.0139082
-0.0141541
-0.0144072
-0.0146715
-0.0149438
-0.0152226
-0.0154995
-0.0157762
-0.0160619
-0.0163474
-0.0166311
-0.0169075
-0.0171726
-0.0174539
-0.0177554
-0.0180606
-0.0183961
-0.0187678
-0.0191353
-0.0194886
-0.0198456
-0.0201897
-0.0205096
-0.0208477
-0.0212185
-0.0215919
-0.0219526
-0.0223028
-0.0226557
-0.0230339
-0.0234084
-0.0237552
-0.0241171
-0.0245075
-0.0248864
-0.0252505
-0.0256334
-0.0260251
-0.0264139
-0.0268052
-0.0272095
-0.027618
-0.0280279
-0.0284461
-0.0288702
-0.0293024
-0.0297384
-0.0301856
-0.0306397
-0.0311037
-0.031578
-0.0320566
-0.0325435
-0.0330336
-0.0335367
-0.0340488
-0.0345713
-0.0351074
-0.0356488
-0.0362056
-0.0367658
-0.0373405
-0.0379211
-0.0385145
-0.0391166
-0.0397296
-0.0403546
-0.040987
-0.0416333
-0.0422849
-0.0429551
-0.0436127
-0.0442968
-0.0449909
0.00959544
0.00383693
-0.00442082
-0.0107747
-0.0129175
-0.0123908
-0.0115584
-0.0112284
-0.0112734
-0.0113598
-0.0113318
-0.0112976
-0.0113508
-0.0114731
-0.0116913
-0.0119682
-0.0121659
-0.0122833
-0.0124199
-0.0125799
-0.0127271
-0.0128823
-0.0130584
-0.013239
-0.0134351
-0.0136627
-0.0139064
-0.0141524
-0.0144056
-0.01467
-0.0149424
-0.0152213
-0.0154982
-0.0157749
-0.0160607
-0.0163463
-0.0166301
-0.0169065
-0.0171717
-0.0174531
-0.0177546
-0.0180599
-0.0183954
-0.0187671
-0.0191347
-0.019488
-0.0198451
-0.0201892
-0.0205092
-0.0208473
-0.0212181
-0.0215915
-0.0219523
-0.0223025
-0.0226554
-0.0230336
-0.0234082
-0.023755
-0.0241169
-0.0245073
-0.0248863
-0.0252504
-0.0256332
-0.026025
-0.0264138
-0.0268051
-0.0272094
-0.0276179
-0.0280279
-0.0284461
-0.0288701
-0.0293024
-0.0297384
-0.0301856
-0.0306397
-0.0311036
-0.0315779
-0.0320566
-0.0325435
-0.0330336
-0.0335367
-0.0340488
-0.0345713
-0.0351074
-0.0356488
-0.0362056
-0.0367658
-0.0373405
-0.0379211
-0.0385145
-0.0391166
-0.0397296
-0.0403546
-0.040987
-0.0416333
-0.0422849
-0.0429551
-0.0436127
-0.0442968
-0.044991
0.00885066
0.00369895
-0.00423989
-0.0105045
-0.0127637
-0.0123333
-0.0115299
-0.0112066
-0.011256
-0.0113463
-0.0113216
-0.0112899
-0.0113449
-0.011468
-0.0116865
-0.011964
-0.0121621
-0.01228
-0.012417
-0.0125773
-0.0127247
-0.0128801
-0.0130565
-0.0132372
-0.0134334
-0.013661
-0.0139049
-0.014151
-0.0144042
-0.0146687
-0.0149411
-0.0152201
-0.0154971
-0.0157739
-0.0160597
-0.0163453
-0.0166291
-0.0169057
-0.0171708
-0.0174523
-0.0177538
-0.0180592
-0.0183947
-0.0187666
-0.0191342
-0.0194875
-0.0198447
-0.0201888
-0.0205088
-0.0208469
-0.0212177
-0.0215912
-0.021952
-0.0223023
-0.0226552
-0.0230334
-0.023408
-0.0237548
-0.0241167
-0.0245072
-0.0248862
-0.0252503
-0.0256331
-0.0260249
-0.0264137
-0.0268051
-0.0272093
-0.0276178
-0.0280278
-0.028446
-0.0288701
-0.0293023
-0.0297384
-0.0301856
-0.0306396
-0.0311036
-0.0315779
-0.0320565
-0.0325435
-0.0330336
-0.0335366
-0.0340488
-0.0345713
-0.0351074
-0.0356488
-0.0362056
-0.0367658
-0.0373405
-0.0379211
-0.0385145
-0.0391166
-0.0397296
-0.0403546
-0.040987
-0.0416333
-0.0422849
-0.0429551
-0.0436127
-0.0442968
-0.0449911
0.00814925
0.00355847
-0.00401336
-0.0101648
-0.0125533
-0.0122518
-0.0114881
-0.0111727
-0.0112275
-0.011324
-0.0113053
-0.0112786
-0.0113371
-0.0114618
-0.0116805
-0.0119579
-0.0121566
-0.0122754
-0.0124134
-0.0125743
-0.0127219
-0.0128775
-0.0130542
-0.0132352
-0.0134316
-0.0136593
-0.0139033
-0.0141495
-0.0144028
-0.0146674
-0.0149398
-0.0152189
-0.015496
-0.0157728
-0.0160586
-0.0163443
-0.0166282
-0.0169048
-0.01717
-0.0174514
-0.017753
-0.0180583
-0.0183939
-0.0187659
-0.0191337
-0.019487
-0.0198441
-0.0201883
-0.0205084
-0.0208464
-0.0212174
-0.0215909
-0.0219517
-0.022302
-0.0226549
-0.0230331
-0.0234078
-0.0237546
-0.0241165
-0.024507
-0.024886
-0.0252501
-0.025633
-0.0260248
-0.0264136
-0.026805
-0.0272092
-0.0276178
-0.0280278
-0.028446
-0.02887
-0.0293023
-0.0297383
-0.0301855
-0.0306396
-0.0311036
-0.0315779
-0.0320565
-0.0325435
-0.0330336
-0.0335366
-0.0340488
-0.0345712
-0.0351073
-0.0356488
-0.0362056
-0.0367658
-0.0373405
-0.0379211
-0.0385145
-0.0391166
-0.0397296
-0.0403546
-0.040987
-0.0416333
-0.0422849
-0.0429551
-0.0436127
-0.0442968
-0.0449913
0.00745276
0.00338935
-0.00378287
-0.00980543
-0.0123198
-0.0121582
-0.0114391
-0.0111298
-0.0111886
-0.0112921
-0.0112815
-0.0112623
-0.0113265
-0.0114542
-0.0116729
-0.0119493
-0.0121482
-0.0122688
-0.0124085
-0.0125702
-0.0127182
-0.0128741
-0.0130513
-0.0132328
-0.0134295
-0.0136574
-0.0139014
-0.0141477
-0.0144012
-0.0146658
-0.0149383
-0.0152175
-0.0154947
-0.0157716
-0.0160575
-0.0163431
-0.016627
-0.0169037
-0.017169
-0.0174504
-0.017752
-0.0180573
-0.018393
-0.0187651
-0.019133
-0.0194863
-0.0198435
-0.0201877
-0.0205078
-0.0208459
-0.0212169
-0.0215904
-0.0219512
-0.0223016
-0.0226545
-0.0230328
-0.0234075
-0.0237543
-0.0241162
-0.0245068
-0.0248858
-0.0252499
-0.0256328
-0.0260246
-0.0264134
-0.0268048
-0.0272091
-0.0276177
-0.0280277
-0.0284459
-0.02887
-0.0293022
-0.0297383
-0.0301855
-0.0306396
-0.0311035
-0.0315779
-0.0320565
-0.0325435
-0.0330336
-0.0335366
-0.0340488
-0.0345712
-0.0351073
-0.0356488
-0.0362056
-0.0367658
-0.0373405
-0.0379211
-0.0385145
-0.0391166
-0.0397296
-0.0403546
-0.040987
-0.0416333
-0.0422849
-0.0429551
-0.0436127
-0.0442968
-0.0449916
0.00675815
0.00318598
-0.00356208
-0.00944123
-0.0120737
-0.0120585
-0.0113888
-0.0110836
-0.0111441
-0.0112541
-0.0112525
-0.0112422
-0.0113134
-0.011445
-0.0116636
-0.011938
-0.0121368
-0.0122597
-0.0124018
-0.0125649
-0.0127135
-0.0128699
-0.0130477
-0.0132299
-0.0134272
-0.0136552
-0.0138992
-0.0141457
-0.0143994
-0.0146641
-0.0149365
-0.0152157
-0.0154932
-0.0157702
-0.0160562
-0.0163418
-0.0166257
-0.0169026
-0.0171679
-0.0174493
-0.0177506
-0.0180559
-0.0183916
-0.0187641
-0.0191322
-0.0194855
-0.0198425
-0.0201868
-0.020507
-0.0208452
-0.0212162
-0.0215897
-0.0219506
-0.022301
-0.022654
-0.0230323
-0.023407
-0.0237539
-0.0241158
-0.0245065
-0.0248855
-0.0252496
-0.0256326
-0.0260244
-0.0264132
-0.0268047
-0.027209
-0.0276175
-0.0280275
-0.0284458
-0.0288699
-0.0293022
-0.0297382
-0.0301854
-0.0306395
-0.0311035
-0.0315778
-0.0320565
-0.0325434
-0.0330335
-0.0335366
-0.0340487
-0.0345712
-0.0351073
-0.0356488
-0.0362056
-0.0367658
-0.0373405
-0.037921
-0.0385145
-0.0391166
-0.0397296
-0.0403546
-0.040987
-0.0416333
-0.0422849
-0.0429551
-0.0436127
-0.0442968
-0.044992
0.00607188
0.00295095
-0.00335515
-0.00907537
-0.0118155
-0.0119522
-0.0113381
-0.0110363
-0.0110962
-0.0112123
-0.0112204
-0.0112197
-0.0112987
-0.0114348
-0.011653
-0.0119247
-0.0121232
-0.0122487
-0.0123936
-0.0125584
-0.012708
-0.012865
-0.0130435
-0.0132267
-0.0134246
-0.0136527
-0.0138968
-0.0141435
-0.0143974
-0.0146621
-0.0149344
-0.0152136
-0.0154912
-0.0157685
-0.0160546
-0.0163402
-0.0166242
-0.0169013
-0.0171669
-0.0174481
-0.0177491
-0.0180541
-0.0183899
-0.0187627
-0.0191311
-0.0194843
-0.0198412
-0.0201856
-0.020506
-0.0208444
-0.0212153
-0.0215888
-0.0219497
-0.0223003
-0.0226533
-0.0230316
-0.0234064
-0.0237533
-0.0241153
-0.024506
-0.0248851
-0.0252492
-0.0256322
-0.0260241
-0.0264129
-0.0268044
-0.0272087
-0.0276173
-0.0280274
-0.0284456
-0.0288697
-0.029302
-0.0297381
-0.0301853
-0.0306394
-0.0311034
-0.0315778
-0.0320564
-0.0325434
-0.0330335
-0.0335365
-0.0340487
-0.0345712
-0.0351073
-0.0356487
-0.0362056
-0.0367657
-0.0373405
-0.037921
-0.0385145
-0.0391166
-0.0397296
-0.0403546
-0.040987
-0.0416334
-0.0422849
-0.0429551
-0.0436127
-0.0442969
-0.0449925
0.00540234
0.00268789
-0.00316601
-0.00870978
-0.0115442
-0.0118374
-0.0112867
-0.0109886
-0.0110459
-0.0111675
-0.0111858
-0.0111955
-0.0112827
-0.0114237
-0.0116416
-0.0119103
-0.0121082
-0.0122363
-0.0123842
-0.0125508
-0.0127016
-0.0128595
-0.013039
-0.0132233
-0.0134219
-0.0136501
-0.0138941
-0.0141411
-0.0143953
-0.01466
-0.014932
-0.0152111
-0.0154888
-0.0157663
-0.0160525
-0.016338
-0.0166223
-0.0168999
-0.0171659
-0.0174471
-0.0177475
-0.0180521
-0.0183879
-0.018761
-0.0191296
-0.0194829
-0.0198395
-0.0201838
-0.0205046
-0.0208433
-0.0212141
-0.0215874
-0.0219484
-0.0222993
-0.0226524
-0.0230306
-0.0234054
-0.0237524
-0.0241146
-0.0245052
-0.0248844
-0.0252486
-0.0256317
-0.0260236
-0.0264125
-0.026804
-0.0272084
-0.027617
-0.0280271
-0.0284454
-0.0288695
-0.0293018
-0.0297379
-0.0301851
-0.0306393
-0.0311033
-0.0315777
-0.0320563
-0.0325433
-0.0330334
-0.0335365
-0.0340486
-0.0345711
-0.0351072
-0.0356487
-0.0362056
-0.0367657
-0.0373405
-0.037921
-0.0385144
-0.0391166
-0.0397296
-0.0403546
-0.040987
-0.0416334
-0.0422849
-0.0429551
-0.0436128
-0.044297
-0.0449931
0.00475614
0.00240019
-0.00299861
-0.00834662
-0.0112591
-0.0117121
-0.011234
-0.0109414
-0.0109941
-0.0111202
-0.011149
-0.0111696
-0.0112656
-0.0114117
-0.0116296
-0.0118952
-0.0120924
-0.0122231
-0.0123739
-0.0125425
-0.0126946
-0.0128535
-0.0130341
-0.0132198
-0.0134192
-0.0136473
-0.0138912
-0.0141386
-0.0143932
-0.0146579
-0.0149296
-0.0152084
-0.0154861
-0.0157637
-0.0160498
-0.0163353
-0.0166198
-0.0168982
-0.017165
-0.0174462
-0.0177461
-0.0180501
-0.0183857
-0.018759
-0.0191279
-0.019481
-0.0198372
-0.0201815
-0.0205028
-0.0208418
-0.0212125
-0.0215855
-0.0219467
-0.0222979
-0.0226512
-0.0230292
-0.023404
-0.0237512
-0.0241136
-0.0245042
-0.0248834
-0.0252478
-0.0256309
-0.0260229
-0.0264119
-0.0268034
-0.0272079
-0.0276166
-0.0280267
-0.028445
-0.0288692
-0.0293015
-0.0297376
-0.0301849
-0.0306391
-0.0311031
-0.0315775
-0.0320562
-0.0325432
-0.0330333
-0.0335364
-0.0340485
-0.034571
-0.0351072
-0.0356486
-0.0362055
-0.0367657
-0.0373404
-0.037921
-0.0385144
-0.0391166
-0.0397295
-0.0403546
-0.040987
-0.0416334
-0.042285
-0.0429551
-0.0436128
-0.0442971
-0.0449937
0.00413799
0.0020921
-0.00285596
-0.00798863
-0.0109608
-0.0115754
-0.0111799
-0.0108959
-0.0109417