/*--------------------------------*- C++ -*----------------------------------*\
| =========                 |                                                 |
| \\      /  F ield         | OpenFOAM: The Open Source CFD Toolbox           |
|  \\    /   O peration     | Version:  2106                                  |
|   \\  /    A nd           | Website:  www.openfoam.com                      |
|    \\/     M anipulation  |                                                 |
\*---------------------------------------------------------------------------*/
FoamFile
{
    version     2.0;
    format      ascii;
    arch        "LSB;label=32;scalar=64";
    class       surfaceScalarField;
    location    "0.575";
    object      phi;
}
// * * * * * * * * * * * * * * * * * * * * * * * * * * * * * * * * * * * * * //

dimensions      [0 3 -1 0 0 0 0];

oriented        oriented;

internalField   nonuniform List<scalar> 
19000
(
1.18239e-06
3.69338e-07
1.13714e-06
-1.69351e-07
1.16036e-06
-3.67419e-07
1.18559e-06
4.84816e-07
1.15412e-06
5.21105e-08
1.13578e-06
-4.62984e-07
1.17341e-06
1.91058e-07
1.13843e-06
-4.96926e-07
1.17477e-06
2.20295e-07
1.14603e-06
1.14033e-08
1.13966e-06
-2.17354e-07
1.1464e-06
1.57935e-07
1.15174e-06
1.65858e-07
1.15074e-06
1.53133e-07
1.15937e-06
-6.07287e-08
1.15937e-06
-1.6336e-08
1.1693e-06
-9.22137e-08
1.16416e-06
6.64688e-09
1.16456e-06
-2.82524e-08
2.90769e-08
1.1375e-06
1.23513e-06
3.58465e-07
1.19246e-06
-1.26675e-07
1.21618e-06
-3.9114e-07
1.2449e-06
4.56097e-07
1.21105e-06
8.59591e-08
1.19165e-06
-4.43589e-07
1.22568e-06
1.57027e-07
1.19317e-06
-4.64411e-07
1.22396e-06
1.89503e-07
1.2056e-06
2.97659e-08
1.19396e-06
-2.05716e-07
1.2078e-06
1.44096e-07
1.20455e-06
1.69111e-07
1.2164e-06
1.41284e-07
1.21272e-06
-5.70526e-08
1.22745e-06
-3.10671e-08
1.2194e-06
-8.41624e-08
1.23537e-06
-9.32568e-09
1.21024e-06
-3.11931e-09
1.83983e-08
1.22092e-06
1.28931e-06
3.51943e-07
1.25369e-06
-9.10621e-08
1.27318e-06
-4.10624e-07
1.30493e-06
4.24341e-07
1.27044e-06
1.20448e-07
1.25231e-06
-4.25455e-07
1.28008e-06
1.29258e-07
1.25517e-06
-4.39505e-07
1.27568e-06
1.69001e-07
1.27235e-06
3.30972e-08
1.25155e-06
-1.84925e-07
1.2689e-06
1.26745e-07
1.26185e-06
1.76164e-07
1.2793e-06
1.23832e-07
1.27184e-06
-4.95947e-08
1.28693e-06
-4.61511e-08
1.27873e-06
-7.59684e-08
1.28946e-06
-2.00526e-08
1.27491e-06
1.14274e-08
2.39789e-08
1.26933e-06
1.34629e-06
3.49755e-07
1.32071e-06
-6.54809e-08
1.33325e-06
-4.2316e-07
1.36381e-06
3.93782e-07
1.33186e-06
1.52395e-07
1.31673e-06
-4.10323e-07
1.33758e-06
1.08409e-07
1.32224e-06
-4.24169e-07
1.33329e-06
1.57951e-07
1.3402e-06
2.6188e-08
1.31555e-06
-1.60281e-07
1.32812e-06
1.14178e-07
1.32626e-06
1.7803e-07
1.34104e-06
1.09049e-07
1.33714e-06
-4.56962e-08
1.34657e-06
-5.55819e-08
1.3425e-06
-7.19015e-08
1.34822e-06
-2.57658e-08
1.33986e-06
1.9785e-08
3.28068e-08
1.33103e-06
1.40731e-06
3.50794e-07
1.39191e-06
-5.00773e-08
1.39759e-06
-4.28838e-07
1.42265e-06
3.68725e-07
1.39606e-06
1.78977e-07
1.38431e-06
-3.9857e-07
1.39917e-06
9.35489e-08
1.39154e-06
-4.16542e-07
1.39729e-06
1.52201e-07
1.40667e-06
1.68086e-08
1.38534e-06
-1.38948e-07
1.39176e-06
1.07755e-07
1.39581e-06
1.73984e-07
1.40753e-06
9.73241e-08
1.40582e-06
-4.39782e-08
1.41166e-06
-6.14237e-08
1.40848e-06
-6.87203e-08
1.41262e-06
-2.99049e-08
1.40631e-06
2.6096e-08
4.16529e-08
1.39746e-06
1.47318e-06
3.53295e-07
1.46578e-06
-4.26866e-08
1.46684e-06
-4.29896e-07
1.48404e-06
3.51526e-07
1.46385e-06
1.99164e-07
1.45515e-06
-3.89867e-07
1.4656e-06
8.30952e-08
1.46221e-06
-4.13147e-07
1.46606e-06
1.48355e-07
1.4733e-06
9.5677e-09
1.45809e-06
-1.2374e-07
1.46204e-06
1.03807e-07
1.46871e-06
1.67315e-07
1.47851e-06
8.75212e-08
1.47676e-06
-4.22332e-08
1.48038e-06
-6.50358e-08
1.47679e-06
-6.51309e-08
1.47948e-06
-3.25983e-08
1.47492e-06
3.0655e-08
5.05956e-08
1.46598e-06
1.54398e-06
3.55532e-07
1.54164e-06
-4.03517e-08
1.54063e-06
-4.28883e-07
1.5503e-06
3.4186e-07
1.53562e-06
2.13841e-07
1.52953e-06
-3.83773e-07
1.53692e-06
7.5706e-08
1.53474e-06
-4.10969e-07
1.53798e-06
1.45116e-07
1.54206e-06
5.48555e-09
1.53215e-06
-1.1383e-07
1.53689e-06
9.90686e-08
1.54412e-06
1.6008e-07
1.55218e-06
7.94592e-08
1.54962e-06
-3.96648e-08
1.55129e-06
-6.67073e-08
1.54723e-06
-6.10762e-08
1.54804e-06
-3.34111e-08
1.54505e-06
3.36461e-08
5.94673e-08
1.53618e-06
1.61923e-06
3.56432e-07
1.61948e-06
-4.06016e-08
1.61784e-06
-4.27248e-07
1.62226e-06
3.37445e-07
1.61147e-06
2.24624e-07
1.60744e-06
-3.79734e-07
1.61262e-06
7.05238e-08
1.60988e-06
-4.08231e-07
1.61267e-06
1.42327e-07
1.61418e-06
3.97434e-09
1.60776e-06
-1.0741e-07
1.61422e-06
9.26142e-08
1.6215e-06
1.52792e-07
1.62784e-06
7.3123e-08
1.62441e-06
-3.62316e-08
1.62428e-06
-6.65763e-08
1.61996e-06
-5.676e-08
1.61876e-06
-3.2215e-08
1.6169e-06
3.5506e-08
6.80738e-08
1.6083e-06
1.69828e-06
3.55726e-07
1.69958e-06
-4.19051e-08
1.69747e-06
-4.25133e-07
1.69944e-06
3.35473e-07
1.69138e-06
2.32691e-07
1.68859e-06
-3.76943e-07
1.6921e-06
6.70066e-08
1.68812e-06
-4.04249e-07
1.69049e-06
1.39959e-07
1.6903e-06
4.16045e-09
1.68585e-06
-1.02954e-07
1.69338e-06
8.5079e-08
1.70066e-06
1.45515e-07
1.70551e-06
6.82669e-08
1.70155e-06
-3.22735e-08
1.69981e-06
-6.48333e-08
1.69551e-06
-5.24568e-08
1.69244e-06
-2.91439e-08
1.69122e-06
3.67198e-08
7.62704e-08
1.68303e-06
1.78079e-06
3.53654e-07
1.78238e-06
-4.34928e-08
1.77923e-06
-4.21986e-07
1.78098e-06
3.33731e-07
1.77519e-06
2.38479e-07
1.77271e-06
-3.74463e-07
1.77498e-06
6.47323e-08
1.76969e-06
-3.98953e-07
1.77182e-06
1.37824e-07
1.77073e-06
5.24885e-09
1.76718e-06
-9.94022e-08
1.77468e-06
7.75768e-08
1.78189e-06
1.38307e-07
1.78559e-06
6.45661e-08
1.78162e-06
-2.82974e-08
1.77851e-06
-6.17247e-08
1.77445e-06
-4.84047e-08
1.76982e-06
-2.45101e-08
1.76877e-06
3.77661e-08
8.38733e-08
1.76117e-06
1.86681e-06
3.50597e-07
1.86832e-06
-4.50092e-08
1.86358e-06
-4.1724e-07
1.86634e-06
3.3097e-07
1.86276e-06
2.42053e-07
1.8598e-06
-3.71504e-07
1.86121e-06
6.33244e-08
1.85476e-06
-3.92505e-07
1.85693e-06
1.35659e-07
1.85557e-06
6.60509e-09
1.85229e-06
-9.61229e-08
1.85879e-06
7.1078e-08
1.86589e-06
1.31206e-07
1.86869e-06
6.17689e-08
1.86514e-06
-2.47458e-08
1.86094e-06
-5.75236e-08
1.85725e-06
-4.47165e-08
1.85148e-06
-1.87382e-08
1.85015e-06
3.90956e-08
9.06344e-08
1.84339e-06
1.95659e-06
3.46851e-07
1.95785e-06
-4.62757e-08
1.95126e-06
-4.10648e-07
1.95551e-06
3.26724e-07
1.95406e-06
2.43495e-07
1.95016e-06
-3.67601e-07
1.95101e-06
6.24726e-08
1.9436e-06
-3.85091e-07
1.94604e-06
1.33214e-07
1.9448e-06
7.85036e-09
1.94154e-06
-9.28605e-08
1.94645e-06
6.61688e-08
1.95348e-06
1.24173e-07
1.9555e-06
5.97469e-08
1.95261e-06
-2.18591e-08
1.94759e-06
-5.24987e-08
1.94421e-06
-4.13394e-08
1.93779e-06
-1.23111e-08
1.9358e-06
4.10762e-08
9.63014e-08
1.93014e-06
2.05045e-06
3.42588e-07
2.05138e-06
-4.72006e-08
2.04302e-06
-4.02291e-07
2.04876e-06
3.20987e-07
2.04921e-06
2.4304e-07
2.04421e-06
-3.62601e-07
2.04472e-06
6.19612e-08
2.03649e-06
-3.76859e-07
2.03943e-06
1.30274e-07
2.03838e-06
8.90318e-09
2.03516e-06
-8.96436e-08
2.03828e-06
6.30478e-08
2.04534e-06
1.17114e-07
2.04663e-06
5.8458e-08
2.04444e-06
-1.96662e-08
2.03885e-06
-4.69119e-08
2.03558e-06
-3.80657e-08
2.02898e-06
-5.71581e-09
2.02616e-06
4.38934e-08
1.00755e-07
2.02171e-06
2.14869e-06
3.37898e-07
2.14925e-06
-4.77575e-08
2.13939e-06
-3.92431e-07
2.14641e-06
3.1397e-07
2.14843e-06
2.41015e-07
2.14238e-06
-3.56555e-07
2.14269e-06
6.16532e-08
2.13372e-06
-3.67892e-07
2.13733e-06
1.26669e-07
2.13632e-06
9.91109e-09
2.13333e-06
-8.66541e-08
2.13473e-06
6.16465e-08
2.14192e-06
1.09923e-07
2.14252e-06
5.78662e-08
2.14088e-06
-1.80339e-08
2.13502e-06
-4.10441e-08
2.13153e-06
-3.45833e-08
2.1252e-06
6.15662e-10
2.12155e-06
4.75477e-08
1.04046e-07
2.11826e-06
2.25156e-06
3.32828e-07
2.25177e-06
-4.79731e-08
2.24073e-06
-3.81391e-07
2.24873e-06
3.05971e-07
2.25199e-06
2.37755e-07
2.24503e-06
-3.49595e-07
2.24525e-06
6.14389e-08
2.23556e-06
-3.58208e-07
2.23995e-06
1.22282e-07
2.23874e-06
1.11256e-08
2.23619e-06
-8.41098e-08
2.23607e-06
6.17646e-08
2.24347e-06
1.02529e-07
2.24347e-06
5.7867e-08
2.24215e-06
-1.67198e-08
2.23632e-06
-3.52127e-08
2.23228e-06
-3.05391e-08
2.22654e-06
6.35784e-09
2.22222e-06
5.18617e-08
1.06402e-07
2.21987e-06
2.35929e-06
3.27418e-07
2.35921e-06
-4.79003e-08
2.34731e-06
-3.69485e-07
2.35598e-06
2.97303e-07
2.36018e-06
2.33554e-07
2.35244e-06
-3.41858e-07
2.35269e-06
6.1192e-08
2.34226e-06
-3.47779e-07
2.34749e-06
1.1705e-07
2.34582e-06
1.27981e-08
2.3439e-06
-8.21909e-08
2.34251e-06
6.31556e-08
2.3501e-06
9.4931e-08
2.34971e-06
5.82592e-08
2.34841e-06
-1.54157e-08
2.34295e-06
-2.97502e-08
2.33802e-06
-2.5612e-08
2.33305e-06
1.13224e-08
2.32838e-06
5.65312e-08
1.08155e-07
2.32663e-06
2.47211e-06
3.21702e-07
2.4718e-06
-4.759e-08
2.45932e-06
-3.57002e-07
2.46837e-06
2.88252e-07
2.47327e-06
2.28657e-07
2.46485e-06
-3.33446e-07
2.46529e-06
6.07601e-08
2.45406e-06
-3.36551e-07
2.46016e-06
1.10953e-07
2.45783e-06
1.51269e-08
2.45664e-06
-8.10073e-08
2.45424e-06
6.5556e-08
2.46196e-06
8.72147e-08
2.46146e-06
5.87579e-08
2.45982e-06
-1.37782e-08
2.45502e-06
-2.49514e-08
2.44911e-06
-1.96972e-08
2.44482e-06
1.56133e-08
2.44018e-06
6.11704e-08
1.0963e-07
2.4387e-06
2.59029e-06
3.15707e-07
2.58977e-06
-4.70732e-08
2.57696e-06
-3.44185e-07
2.58616e-06
2.79045e-07
2.59157e-06
2.23254e-07
2.58253e-06
-3.24415e-07
2.58331e-06
5.99825e-08
2.57123e-06
-3.24471e-07
2.57819e-06
1.03993e-07
2.57508e-06
1.8239e-08
2.57466e-06
-8.05876e-08
2.57153e-06
6.86816e-08
2.57918e-06
7.95687e-08
2.57893e-06
5.90129e-08
2.5766e-06
-1.145e-08
2.57265e-06
-2.10029e-08
2.56591e-06
-1.29547e-08
2.56191e-06
1.96062e-08
2.55773e-06
6.53568e-08
1.11052e-07
2.55631e-06
2.71409e-06
3.09449e-07
2.71337e-06
-4.63587e-08
2.70042e-06
-3.31233e-07
2.70961e-06
2.6985e-07
2.71539e-06
2.17475e-07
2.70576e-06
-3.14779e-07
2.70702e-06
5.87152e-08
2.69405e-06
-3.11499e-07
2.70186e-06
9.61862e-08
2.69791e-06
2.21846e-08
2.6982e-06
-8.08738e-08
2.69466e-06
7.22204e-08
2.70197e-06
7.22632e-08
2.7023e-06
5.86749e-08
2.69899e-06
-8.13371e-09
2.69591e-06
-1.79217e-08
2.68869e-06
-5.7409e-09
2.68453e-06
2.37711e-08
2.68114e-06
6.87429e-08
1.12481e-07
2.67971e-06
2.84378e-06
3.02938e-07
2.84286e-06
-4.54411e-08
2.82992e-06
-3.18291e-07
2.83898e-06
2.60786e-07
2.84507e-06
2.11391e-07
2.83481e-06
-3.04523e-07
2.83668e-06
5.68483e-08
2.8228e-06
-2.97619e-07
2.83142e-06
8.75668e-08
2.82667e-06
2.69323e-08
2.82752e-06
-8.17214e-08
2.82391e-06
7.5826e-08
2.83054e-06
6.56327e-08
2.83178e-06
5.7442e-08
2.82733e-06
-3.68562e-09
2.82492e-06
-1.55091e-08
2.8177e-06
1.47404e-09
2.81298e-06
2.84888e-08
2.81053e-06
7.11959e-08
1.1379e-07
2.80922e-06
2.97966e-06
2.96173e-07
2.97853e-06
-4.4308e-08
2.96571e-06
-3.05468e-07
2.97454e-06
2.51948e-07
2.98092e-06
2.05018e-07
2.97001e-06
-2.93613e-07
2.97254e-06
5.43135e-08
2.95777e-06
-2.82845e-07
2.96713e-06
7.8205e-08
2.96169e-06
3.23675e-08
2.96288e-06
-8.29067e-08
2.95958e-06
7.91288e-08
2.96518e-06
6.0027e-08
2.96751e-06
5.51176e-08
2.96198e-06
1.8399e-09
2.95985e-06
-1.33799e-08
2.95312e-06
8.20335e-09
2.94768e-06
3.39322e-08
2.94602e-06
7.28505e-08
1.14708e-07
2.94511e-06
3.12203e-06
2.8915e-07
3.12066e-06
-4.29433e-08
3.10805e-06
-2.92851e-07
3.11657e-06
2.43422e-07
3.12325e-06
1.98337e-07
3.11165e-06
-2.82012e-07
3.11488e-06
5.10835e-08
3.09927e-06
-2.67232e-07
3.10925e-06
6.82208e-08
3.10332e-06
3.82992e-08
3.10456e-06
-8.41412e-08
3.10194e-06
8.1747e-08
3.1062e-06
5.57666e-08
3.10967e-06
5.16456e-08
3.10329e-06
8.21586e-09
3.10098e-06
-1.1069e-08
3.09512e-06
1.40659e-08
3.08904e-06
4.00183e-08
3.08781e-06
7.40707e-08
1.14904e-07
3.08762e-06
3.2712e-06
2.81862e-07
3.26958e-06
-4.13272e-08
3.25725e-06
-2.80516e-07
3.26537e-06
2.353e-07
3.2724e-06
1.91306e-07
3.26008e-06
-2.69691e-07
3.26399e-06
4.71735e-08
3.24764e-06
-2.50887e-07
3.25807e-06
5.7795e-08
3.2519e-06
4.447e-08
3.25286e-06
-8.50984e-08
3.25127e-06
8.33342e-08
3.25396e-06
5.30737e-08
3.25847e-06
4.71417e-08
3.2516e-06
1.5081e-08
3.24865e-06
-8.12017e-09
3.24388e-06
1.8836e-08
3.23743e-06
4.64667e-08
3.2362e-06
7.53072e-08
1.14137e-07
3.23696e-06
3.42749e-06
2.74301e-07
3.4256e-06
-3.94337e-08
3.41363e-06
-2.68545e-07
3.42125e-06
2.27676e-07
3.42868e-06
1.83878e-07
3.41562e-06
-2.56633e-07
3.42016e-06
4.26406e-08
3.40325e-06
-2.33978e-07
3.41387e-06
4.71714e-08
3.40777e-06
5.05731e-08
3.40811e-06
-8.54422e-08
3.40783e-06
8.36141e-08
3.40887e-06
5.20329e-08
3.41413e-06
4.18828e-08
3.40719e-06
2.20199e-08
3.40327e-06
-4.20316e-09
3.39961e-06
2.24963e-08
3.39322e-06
5.28625e-08
3.39155e-06
7.69746e-08
1.12356e-07
3.39333e-06
3.59126e-06
2.66455e-07
3.58905e-06
-3.72291e-08
3.57753e-06
-2.57026e-07
3.58455e-06
2.20655e-07
3.59243e-06
1.76e-07
3.57864e-06
-2.42839e-07
3.5837e-06
3.75836e-08
3.56645e-06
-2.16735e-07
3.57697e-06
3.66528e-08
3.57127e-06
5.62757e-08
3.5707e-06
-8.48716e-08
3.57187e-06
8.2445e-08
3.57135e-06
5.25495e-08
3.57695e-06
3.62855e-08
3.57036e-06
2.86096e-08
3.5653e-06
8.57732e-10
3.56259e-06
2.52077e-08
3.55669e-06
5.87551e-08
3.55435e-06
7.93157e-08
1.09774e-07
3.55694e-06
3.76285e-06
2.5831e-07
3.76029e-06
-3.46699e-08
3.74932e-06
-2.46058e-07
3.75563e-06
2.14343e-07
3.764e-06
1.67631e-07
3.7495e-06
-2.28338e-07
3.75494e-06
3.2145e-08
3.73765e-06
-1.99448e-07
3.74772e-06
2.65852e-08
3.74274e-06
6.12551e-08
3.74104e-06
-8.3173e-08
3.74362e-06
7.98634e-08
3.74181e-06
5.43598e-08
3.74728e-06
3.08237e-08
3.74138e-06
3.45043e-08
3.73516e-06
7.08382e-09
3.73313e-06
2.72348e-08
3.72815e-06
6.37351e-08
3.72511e-06
8.23557e-08
1.06845e-07
3.72804e-06
3.94265e-06
2.49851e-07
3.93968e-06
-3.17023e-08
3.92937e-06
-2.35746e-07
3.93487e-06
2.08841e-07
3.94375e-06
1.58755e-07
3.92861e-06
-2.13201e-07
3.93423e-06
2.65258e-08
3.91724e-06
-1.82464e-07
3.9265e-06
1.73339e-08
3.92251e-06
6.52405e-08
3.9196e-06
-8.02629e-08
3.92337e-06
7.60897e-08
3.92064e-06
5.70943e-08
3.92552e-06
2.59427e-08
3.92054e-06
3.94848e-08
3.91328e-06
1.43443e-08
3.91162e-06
2.88987e-08
3.90786e-06
6.74934e-08
3.90432e-06
8.58937e-08
1.04155e-07
3.90701e-06
4.13104e-06
2.41059e-07
4.1276e-06
-2.82633e-08
4.11806e-06
-2.26204e-07
4.12267e-06
2.04233e-07
4.13202e-06
1.494e-07
4.11639e-06
-1.97563e-07
4.12192e-06
2.09942e-08
4.10563e-06
-1.66173e-07
4.11372e-06
9.2385e-09
4.11089e-06
6.8071e-08
4.10684e-06
-7.62061e-08
4.11147e-06
7.14594e-08
4.10816e-06
6.03982e-08
4.11212e-06
2.1984e-08
4.10819e-06
4.34166e-08
4.10012e-06
2.24083e-08
4.09848e-06
3.05422e-08
4.0961e-06
6.98715e-08
4.09244e-06
8.95527e-08
1.02242e-07
4.09436e-06
4.32845e-06
2.31914e-07
4.32447e-06
-2.42817e-08
4.31581e-06
-2.17545e-07
4.31947e-06
2.00572e-07
4.32921e-06
1.39657e-07
4.31328e-06
-1.81632e-07
4.3184e-06
1.58742e-08
4.30319e-06
-1.50962e-07
4.30988e-06
2.54697e-09
4.3082e-06
6.97459e-08
4.30322e-06
-7.12206e-08
4.30832e-06
6.63567e-08
4.3047e-06
6.40206e-08
4.30755e-06
1.91309e-08
4.30471e-06
4.6264e-08
4.29617e-06
3.09443e-08
4.29419e-06
3.25212e-08
4.29318e-06
7.08797e-08
4.28989e-06
9.28454e-08
1.01435e-07
4.2907e-06
4.53529e-06
2.22393e-07
4.53069e-06
-1.9681e-08
4.52302e-06
-2.09872e-07
4.52574e-06
1.97855e-07
4.5357e-06
1.29699e-07
4.51976e-06
-1.65693e-07
4.5241e-06
1.15302e-08
4.5103e-06
-1.3716e-07
4.51549e-06
-2.6401e-09
4.51477e-06
7.04598e-08
4.50918e-06
-6.56267e-08
4.51443e-06
6.1102e-08
4.51061e-06
6.78416e-08
4.51229e-06
1.74577e-08
4.51053e-06
4.80194e-08
4.50188e-06
3.95903e-08
4.49926e-06
3.51419e-08
4.49945e-06
7.06975e-08
4.49698e-06
9.53115e-08
1.01714e-07
4.4967e-06
4.75203e-06
2.12474e-07
4.74674e-06
-1.43872e-08
4.74013e-06
-2.03262e-07
4.74198e-06
1.96002e-07
4.75189e-06
1.19793e-07
4.73631e-06
-1.5011e-07
4.73949e-06
8.3414e-09
4.72731e-06
-1.24975e-07
4.7311e-06
-6.42781e-09
4.73097e-06
7.05828e-08
4.72509e-06
-5.97435e-08
4.73032e-06
5.58749e-08
4.72634e-06
7.1817e-08
4.72678e-06
1.7022e-08
4.72613e-06
4.86647e-08
4.71773e-06
4.79945e-08
4.71428e-06
3.8589e-08
4.71529e-06
6.96937e-08
4.71401e-06
9.65861e-08
1.02739e-07
4.71299e-06
4.97914e-06
2.02137e-07
4.97308e-06
-8.33455e-09
4.96758e-06
-1.97755e-07
4.96874e-06
1.9484e-07
4.97823e-06
1.10303e-07
4.96342e-06
-1.35305e-07
4.96512e-06
6.64721e-09
4.95459e-06
-1.14444e-07
4.95726e-06
-9.10063e-09
4.95729e-06
7.05523e-08
4.9513e-06
-5.3755e-08
4.9565e-06
5.0671e-08
4.95238e-06
7.59421e-08
4.9515e-06
1.79032e-08
4.95196e-06
4.82018e-08
4.94418e-06
5.57732e-08
4.93983e-06
4.29388e-08
4.94122e-06
6.83024e-08
4.94128e-06
9.65266e-08
1.03955e-07
4.94007e-06
5.21709e-06
1.91364e-07
5.21023e-06
-1.47331e-09
5.20581e-06
-1.93336e-07
5.20656e-06
1.94086e-07
5.21517e-06
1.01693e-07
5.20161e-06
-1.21738e-07
5.20155e-06
6.69914e-09
5.19249e-06
-1.05382e-07
5.19454e-06
-1.11446e-08
5.19427e-06
7.08157e-08
5.18818e-06
-4.76657e-08
5.19348e-06
4.5372e-08
5.18927e-06
8.01496e-08
5.18694e-06
2.02359e-08
5.18844e-06
4.67044e-08
5.18171e-06
6.24996e-08
5.1765e-06
4.81497e-08
5.17785e-06
6.69559e-08
5.17915e-06
9.5223e-08
1.04783e-07
5.17832e-06
5.46641e-06
1.80148e-07
5.45871e-06
6.22168e-09
5.4553e-06
-1.89924e-07
5.45604e-06
1.93342e-07
5.46323e-06
9.451e-08
5.45135e-06
-1.09867e-07
5.44943e-06
8.62657e-09
5.44146e-06
-9.74122e-08
5.44343e-06
-1.31191e-08
5.44258e-06
7.16658e-08
5.43622e-06
-4.13057e-08
5.44171e-06
3.98879e-08
5.43763e-06
8.42216e-08
5.43375e-06
2.41147e-08
5.43603e-06
4.44303e-08
5.43076e-06
6.77676e-08
5.42488e-06
5.40269e-08
5.42581e-06
6.60321e-08
5.42808e-06
9.29474e-08
1.04793e-07
5.42807e-06
5.72762e-06
1.68488e-07
5.71909e-06
1.47469e-08
5.71653e-06
-1.8736e-07
5.71776e-06
1.92108e-07
5.72294e-06
8.93378e-08
5.71314e-06
-1.00075e-07
5.70939e-06
1.2381e-08
5.70195e-06
-8.99754e-08
5.70437e-06
-1.554e-08
5.70288e-06
7.31599e-08
5.69592e-06
-3.43418e-08
5.70165e-06
3.41557e-08
5.6981e-06
8.77736e-08
5.69264e-06
2.95656e-08
5.69524e-06
4.18362e-08
5.69176e-06
7.12454e-08
5.68555e-06
6.0233e-08
5.68574e-06
6.5843e-08
5.68867e-06
9.00238e-08
1.03804e-07
5.68966e-06
6.00128e-06
1.56401e-07
5.99197e-06
2.40524e-08
5.99002e-06
-1.85404e-07
5.99231e-06
1.89817e-07
5.99491e-06
8.67353e-08
5.9874e-06
-9.2568e-08
5.9822e-06
1.75883e-08
5.97455e-06
-8.23256e-08
5.97774e-06
-1.87357e-08
5.97588e-06
7.5026e-08
5.96784e-06
-2.63011e-08
5.97382e-06
2.817e-08
5.97131e-06
9.02866e-08
5.96437e-06
3.65067e-08
5.96668e-06
3.95273e-08
5.96514e-06
7.27789e-08
5.95908e-06
6.62972e-08
5.95834e-06
6.65778e-08
5.96155e-06
8.682e-08
1.01811e-07
5.96354e-06
6.28797e-06
1.43923e-07
6.27797e-06
3.40512e-08
6.2763e-06
-1.8374e-07
6.28023e-06
1.85888e-07
6.27986e-06
8.71128e-08
6.27458e-06
-8.72962e-08
6.26861e-06
2.35591e-08
6.2599e-06
-7.36103e-08
6.26395e-06
-2.2789e-08
6.26221e-06
7.6767e-08
6.25275e-06
-1.68355e-08
6.25863e-06
2.22804e-08
6.25779e-06
9.1136e-08
6.24969e-06
4.4605e-08
6.25106e-06
3.81584e-08
6.25138e-06
7.24509e-08
6.24599e-06
7.16955e-08
6.24431e-06
6.82494e-08
6.24741e-06
8.37265e-08
9.89035e-08
6.25032e-06
6.58828e-06
1.31109e-07
6.57772e-06
4.46151e-08
6.57597e-06
-1.81995e-07
6.58207e-06
1.79791e-07
6.57859e-06
9.05905e-08
6.57515e-06
-8.38499e-08
6.56928e-06
2.9423e-08
6.55877e-06
-6.30984e-08
6.56345e-06
-2.74688e-08
6.56246e-06
7.77561e-08
6.55147e-06
-5.84461e-09
6.55675e-06
1.70041e-08
6.55787e-06
9.00147e-08
6.54932e-06
5.31563e-08
6.5492e-06
3.82732e-08
6.55102e-06
7.06369e-08
6.54679e-06
7.59261e-08
6.54438e-06
7.06557e-08
6.54696e-06
8.1146e-08
9.52411e-08
6.55062e-06
6.90286e-06
1.18041e-07
6.89189e-06
5.55854e-08
6.88965e-06
-1.79754e-07
6.89834e-06
1.711e-07
6.89199e-06
9.69354e-08
6.88948e-06
-8.134e-08
6.88472e-06
3.41878e-08
6.87211e-06
-5.04898e-08
6.87674e-06
-3.20952e-08
6.87721e-06
7.7282e-08
6.86502e-06
6.34584e-09
6.86882e-06
1.32003e-08
6.87205e-06
8.67877e-08
6.86381e-06
6.13939e-08
6.86201e-06
4.00748e-08
6.86468e-06
6.79666e-08
6.86197e-06
7.86361e-08
6.85922e-06
7.34076e-08
6.861e-06
7.93705e-08
9.11395e-08
6.8651e-06
7.23235e-06
1.04829e-07
7.22116e-06
6.67748e-08
7.21799e-06
-1.76581e-07
7.22954e-06
1.59548e-07
7.22096e-06
1.0551e-07
7.21825e-06
-7.86282e-08
7.21543e-06
3.70043e-08
7.20092e-06
-3.59802e-08
7.20445e-06
-3.56251e-08
7.20696e-06
7.47735e-08
7.1943e-06
1.90119e-08
7.19587e-06
1.16248e-08
7.20087e-06
8.1795e-08
7.19369e-06
6.85655e-08
7.19031e-06
4.34553e-08
7.19318e-06
6.51024e-08
7.19207e-06
7.97419e-08
7.18944e-06
7.60422e-08
7.19036e-06
7.84514e-08
8.70775e-08
7.19442e-06
7.57744e-06
9.16115e-08
7.5663e-06
7.792e-08
7.56173e-06
-1.72012e-07
7.57619e-06
1.45084e-07
7.56636e-06
1.15343e-07
7.56227e-06
-7.45363e-08
7.56194e-06
3.73332e-08
7.54617e-06
-2.02084e-08
7.54755e-06
-3.70094e-08
7.55212e-06
7.02036e-08
7.53996e-06
3.11751e-08
7.53899e-06
1.25952e-08
7.54501e-06
7.57758e-08
7.53946e-06
7.4112e-08
7.53491e-06
4.8003e-08
7.53738e-06
6.26372e-08
7.53771e-06
7.94153e-08
7.53561e-06
7.81368e-08
7.53587e-06
7.81884e-08
8.35516e-08
7.5394e-06
7.93886e-06
7.85625e-08
7.92815e-06
8.86343e-08
7.92169e-06
-1.6556e-07
7.9389e-06
1.27881e-07
7.92896e-06
1.25283e-07
7.92242e-06
-6.80011e-08
7.92476e-06
3.49917e-08
7.9087e-06
-4.14193e-09
7.90694e-06
-3.52488e-08
7.91326e-06
6.38828e-08
7.90253e-06
4.19018e-08
7.8992e-06
1.59221e-08
7.90533e-06
6.96472e-08
7.90168e-06
7.77642e-08
7.89651e-06
5.31738e-08
7.89822e-06
6.09286e-08
7.89961e-06
7.80183e-08
7.89834e-06
7.94128e-08
7.8983e-06
7.82234e-08
8.0845e-08
7.90101e-06
8.31736e-06
6.58852e-08
8.30754e-06
9.84505e-08
8.29878e-06
-1.56796e-07
8.3183e-06
1.08357e-07
8.30948e-06
1.34103e-07
8.29973e-06
-5.82453e-08
8.30433e-06
3.03889e-08
8.28921e-06
1.09817e-08
8.28384e-06
-2.9885e-08
8.29101e-06
5.67174e-08
8.28249e-06
5.04194e-08
8.2774e-06
2.10084e-08
8.28286e-06
6.41943e-08
8.28102e-06
7.96045e-08
8.27579e-06
5.83986e-08
8.2766e-06
6.01223e-08
8.27866e-06
7.5959e-08
8.27827e-06
7.98037e-08
8.27829e-06
7.81985e-08
7.88841e-08
8.28025e-06
8.71374e-06
5.38087e-08
8.70535e-06
1.06839e-07
8.69394e-06
-1.45382e-07
8.71515e-06
8.71463e-08
8.70861e-06
1.40639e-07
8.69539e-06
-4.50213e-08
8.7012e-06
2.45769e-08
8.68827e-06
2.39125e-08
8.67965e-06
-2.12643e-08
8.68629e-06
5.00768e-08
8.68041e-06
5.62973e-08
8.67433e-06
2.70892e-08
8.67862e-06
5.9907e-08
8.67827e-06
7.99535e-08
8.67344e-06
6.32283e-08
8.67339e-06
6.01702e-08
8.67578e-06
7.35641e-08
8.67617e-06
7.94197e-08
8.6765e-06
7.78637e-08
7.7365e-08
8.67802e-06
9.12887e-06
4.25624e-08
9.1224e-06
1.13304e-07
9.1082e-06
-1.31185e-07
9.13026e-06
6.5087e-08
9.12695e-06
1.43955e-07
9.11058e-06
-2.86519e-08
9.11631e-06
1.88489e-08
9.10636e-06
3.38564e-08
9.09535e-06
-1.02543e-08
9.10036e-06
4.50696e-08
9.09691e-06
5.97413e-08
9.09064e-06
3.33609e-08
9.09359e-06
5.69556e-08
9.09438e-06
7.91659e-08
9.0902e-06
6.7411e-08
9.08946e-06
6.09056e-08
9.09195e-06
7.10797e-08
9.09298e-06
7.83878e-08
9.09365e-06
7.71891e-08
7.5926e-08
9.09509e-06
9.56366e-06
3.23664e-08
9.55954e-06
1.17419e-07
9.54268e-06
-1.14322e-07
9.56459e-06
4.31776e-08
9.56503e-06
1.4351e-07
9.54641e-06
-1.00276e-08
9.55069e-06
1.45657e-08
9.54403e-06
4.05214e-08
9.53186e-06
1.91184e-09
9.53455e-06
4.23796e-08
9.53283e-06
6.14655e-08
9.527e-06
3.91902e-08
9.52879e-06
5.51658e-08
9.53027e-06
7.76846e-08
9.52695e-06
7.0727e-08
9.52567e-06
6.2193e-08
9.52804e-06
6.87062e-08
9.52971e-06
7.67163e-08
9.53059e-06
7.63143e-08
7.43286e-08
9.53218e-06
1.00191e-05
2.3411e-08
1.00176e-05
1.18891e-07
9.9985e-06
-9.5207e-08
1.00191e-05
2.25681e-08
1.00235e-05
1.39126e-07
1.00039e-05
9.54928e-09
1.00056e-05
1.28808e-08
1.0002e-05
4.4119e-08
9.9899e-06
1.40214e-08
9.9901e-06
4.21779e-08
9.98933e-06
6.2234e-08
9.98421e-06
4.43105e-08
9.98507e-06
5.43094e-08
9.98689e-06
7.58616e-08
9.98463e-06
7.29844e-08
9.98295e-06
6.38766e-08
9.985e-06
6.66581e-08
9.9873e-06
7.44147e-08
9.98839e-06
7.52256e-08
7.26303e-08
9.99009e-06
1.04962e-05
1.583e-08
1.04975e-05
1.17598e-07
1.04768e-05
-7.45199e-08
1.04949e-05
4.48644e-09
1.05031e-05
1.30959e-07
1.0484e-05
2.86714e-08
1.04825e-05
1.43106e-08
1.04812e-05
4.54548e-08
1.04701e-05
2.50937e-08
1.04682e-05
4.40568e-08
1.04676e-05
6.28229e-08
1.04633e-05
4.87022e-08
1.04634e-05
5.42062e-08
1.04653e-05
7.39021e-08
1.0464e-05
7.42573e-08
1.04624e-05
6.5554e-08
1.04639e-05
6.51328e-08
1.04666e-05
7.16677e-08
1.04682e-05
7.3652e-08
7.10477e-08
1.04698e-05
1.09962e-05
9.69761e-09
1.10001e-05
1.13608e-07
1.09788e-05
-5.31323e-08
1.09932e-05
-9.94171e-09
1.10047e-05
1.19472e-07
1.09873e-05
4.59971e-08
1.09828e-05
1.88462e-08
1.09827e-05
4.55986e-08
1.09733e-05
3.44195e-08
1.097e-05
4.74212e-08
1.09691e-05
6.36891e-08
1.09652e-05
5.25675e-08
1.09647e-05
5.47289e-08
1.09667e-05
7.19335e-08
1.09662e-05
7.47782e-08
1.09649e-05
6.68431e-08
1.09659e-05
6.41284e-08
1.09688e-05
6.87837e-08
1.09709e-05
7.14865e-08
6.94508e-08
1.09725e-05
1.152e-05
5.01886e-09
1.15265e-05
1.07163e-07
1.15053e-05
-3.19684e-08
1.15153e-05
-1.98696e-08
1.15294e-05
1.05351e-07
1.15149e-05
6.04434e-08
1.15077e-05
2.60738e-08
1.15078e-05
4.55109e-08
1.15004e-05
4.18067e-08
1.14961e-05
5.16789e-08
1.1495e-05
6.48299e-08
1.14914e-05
5.61936e-08
1.14904e-05
5.57241e-08
1.14921e-05
7.02508e-08
1.14922e-05
7.46416e-08
1.14913e-05
6.76996e-08
1.14921e-05
6.33565e-08
1.14948e-05
6.60853e-08
1.14975e-05
6.88436e-08
6.75791e-08
1.14993e-05
1.20691e-05
1.72087e-09
1.20775e-05
9.87367e-08
1.20576e-05
-1.19994e-08
1.20627e-05
-2.49818e-08
1.20783e-05
8.97318e-08
1.20675e-05
7.12576e-08
1.20584e-05
3.51638e-08
1.2058e-05
4.59235e-08
1.20523e-05
4.75215e-08
1.20478e-05
5.61665e-08
1.20463e-05
6.63352e-08
1.20431e-05
5.94041e-08
1.20415e-05
5.72558e-08
1.20428e-05
6.9018e-08
1.20434e-05
7.4053e-08
1.20428e-05
6.82143e-08
1.20436e-05
6.25734e-08
1.20461e-05
6.36252e-08
1.20489e-05
6.60226e-08
6.52488e-08
1.20512e-05
1.26447e-05
-3.38574e-10
1.26544e-05
8.89438e-08
1.26365e-05
5.90765e-09
1.2637e-05
-2.54897e-08
1.26528e-05
7.39448e-08
1.26459e-05
7.816e-08
1.2636e-05
4.50588e-08
1.26346e-05
4.73157e-08
1.26303e-05
5.18538e-08
1.26259e-05
6.05529e-08
1.26241e-05
6.81347e-08
1.26215e-05
6.20554e-08
1.26195e-05
5.91939e-08
1.26203e-05
6.82837e-08
1.26209e-05
7.34174e-08
1.26208e-05
6.83396e-08
1.26215e-05
6.18456e-08
1.26239e-05
6.12141e-08
1.26267e-05
6.32278e-08
6.25455e-08
1.26294e-05
1.32479e-05
-1.3456e-09
1.32584e-05
7.8459e-08
1.32433e-05
2.10649e-08
1.32398e-05
-2.20409e-08
1.32545e-05
5.92748e-08
1.32513e-05
8.13009e-08
1.32416e-05
5.47886e-08
1.32392e-05
4.97605e-08
1.32359e-05
5.51603e-08
1.32317e-05
6.46855e-08
1.32298e-05
7.00664e-08
1.32276e-05
6.42417e-08
1.32258e-05
6.10528e-08
1.32259e-05
6.81438e-08
1.32264e-05
7.29457e-08
1.32265e-05
6.82451e-08
1.32271e-05
6.11777e-08
1.32296e-05
5.87865e-08
1.32324e-05
6.03758e-08
5.9731e-08
1.32352e-05
1.38803e-05
-1.51272e-09
1.38909e-05
6.78967e-08
1.38788e-05
3.31477e-08
1.38724e-05
-1.5642e-08
1.38849e-05
4.67987e-08
1.38849e-05
8.13147e-08
1.38762e-05
6.34278e-08
1.3873e-05
5.29972e-08
1.38703e-05
5.79025e-08
1.38666e-05
6.83444e-08
1.38645e-05
7.21816e-08
1.38627e-05
6.59804e-08
1.38614e-05
6.24237e-08
1.38611e-05
6.84066e-08
1.38613e-05
7.27168e-08
1.38613e-05
6.82369e-08
1.3862e-05
6.0479e-08
1.38644e-05
5.64638e-08
1.38675e-05
5.72253e-08
5.69739e-08
1.38703e-05
1.45432e-05
-1.05688e-09
1.45533e-05
5.78119e-08
1.45443e-05
4.21143e-08
1.45361e-05
-7.42631e-09
1.45457e-05
3.71668e-08
1.4548e-05
7.90634e-08
1.4541e-05
7.0378e-08
1.45374e-05
5.66865e-08
1.45351e-05
6.01889e-08
1.45319e-05
7.14924e-08
1.45296e-05
7.45232e-08
1.45282e-05
6.73351e-08
1.45274e-05
6.32306e-08
1.45274e-05
6.84269e-08
1.45273e-05
7.2849e-08
1.45271e-05
6.84185e-08
1.45276e-05
5.99471e-08
1.45297e-05
5.43554e-08
1.45331e-05
5.3805e-08
5.40602e-08
1.45361e-05
1.5238e-05
-1.76548e-10
1.52472e-05
4.8643e-08
1.52411e-05
4.81444e-08
1.52322e-05
1.56261e-09
1.52387e-05
3.06073e-08
1.52423e-05
7.54683e-08
1.52373e-05
7.5371e-08
1.52336e-05
6.04104e-08
1.52318e-05
6.19974e-08
1.52291e-05
7.41541e-08
1.52267e-05
7.69898e-08
1.52254e-05
6.86125e-08
1.52252e-05
6.34193e-08
1.52259e-05
6.77314e-08
1.52258e-05
7.29725e-08
1.52253e-05
6.89002e-08
1.52255e-05
5.97535e-08
1.52273e-05
5.25605e-08
1.52306e-05
5.04472e-08
5.07752e-08
1.52339e-05
1.59662e-05
9.76329e-10
1.59742e-05
4.06516e-08
1.59707e-05
5.16501e-08
1.59618e-05
1.04132e-08
1.59655e-05
2.6956e-08
1.59696e-05
7.12911e-08
1.59664e-05
7.85903e-08
1.5963e-05
6.37841e-08
1.59618e-05
6.32903e-08
1.59597e-05
7.62112e-08
1.59572e-05
7.94388e-08
1.59558e-05
7.00754e-08
1.59561e-05
6.31066e-08
1.59576e-05
6.62695e-08
1.59583e-05
7.22478e-08
1.59575e-05
6.96716e-08
1.59573e-05
5.99183e-08
1.59586e-05
5.131e-08
1.59617e-05
4.73578e-08
4.72573e-08
1.59652e-05
1.67293e-05
2.29338e-09
1.6736e-05
3.39346e-08
1.67346e-05
5.31021e-08
1.67263e-05
1.86242e-08
1.67277e-05
2.56447e-08
1.67318e-05
6.71433e-08
1.673e-05
8.04094e-08
1.67272e-05
6.65723e-08
1.67265e-05
6.39646e-08
1.67253e-05
7.74258e-08
1.67229e-05
8.18632e-08
1.67212e-05
7.17113e-08
1.67216e-05
6.27162e-08
1.67238e-05
6.41056e-08
1.67258e-05
7.0281e-08
1.67253e-05
7.01104e-08
1.67247e-05
6.05704e-08
1.67253e-05
5.06886e-08
1.67279e-05
4.47874e-08
4.37638e-08
1.67314e-05
1.75289e-05
3.71341e-09
1.75345e-05
2.8409e-08
1.75345e-05
5.30832e-08
1.75272e-05
2.58766e-08
1.75269e-05
2.59827e-08
1.75306e-05
6.34622e-08
1.75299e-05
8.1116e-08
1.75276e-05
6.88681e-08
1.75275e-05
6.40332e-08
1.75274e-05
7.74972e-08
1.75252e-05
8.40772e-08
1.75234e-05
7.35747e-08
1.75235e-05
6.25276e-08
1.75261e-05
6.15579e-08
1.75292e-05
6.72201e-08
1.75299e-05
6.94009e-08
1.75288e-05
6.16064e-08
1.75288e-05
5.07133e-08
1.75304e-05
4.32175e-08
4.04971e-08
1.75336e-05
1.83669e-05
5.18102e-09
1.83713e-05
2.39458e-08
1.83723e-05
5.21158e-08
1.83661e-05
3.20876e-08
1.83647e-05
2.73345e-08
1.83678e-05
6.03794e-08
1.83679e-05
8.10348e-08
1.8366e-05
7.08243e-08
1.83664e-05
6.36071e-08
1.83676e-05
7.6265e-08
1.83662e-05
8.55306e-08
1.83638e-05
7.5894e-08
1.83637e-05
6.26594e-08
1.83661e-05
5.91746e-08
1.83699e-05
6.34379e-08
1.8372e-05
6.72584e-08
1.83713e-05
6.2356e-08
1.83705e-05
5.15086e-08
1.83711e-05
4.25845e-08
3.80194e-08
1.83736e-05
1.92449e-05
6.6511e-09
1.92484e-05
2.04483e-08
1.925e-05
5.0509e-08
1.92448e-05
3.73127e-08
1.92428e-05
2.93595e-08
1.92454e-05
5.77066e-08
1.92461e-05
8.03842e-08
1.92443e-05
7.26074e-08
1.92449e-05
6.29994e-08
1.92474e-05