/*--------------------------------*- C++ -*----------------------------------*\
| =========                 |                                                 |
| \\      /  F ield         | OpenFOAM: The Open Source CFD Toolbox           |
|  \\    /   O peration     | Version:  2106                                  |
|   \\  /    A nd           | Website:  www.openfoam.com                      |
|    \\/     M anipulation  |                                                 |
\*---------------------------------------------------------------------------*/
FoamFile
{
    version     2.0;
    format      ascii;
    arch        "LSB;label=32;scalar=64";
    class       volVectorField;
    location    "0.93";
    object      U;
}
// * * * * * * * * * * * * * * * * * * * * * * * * * * * * * * * * * * * * * //

dimensions      [0 1 -1 0 0 0 0];

internalField   nonuniform List<vector> 
9600
(
(0.847837 -0.00163389 0)
(1.1623 0.00318381 0)
(0.824399 -0.00917467 0)
(1.14589 0.00648106 0)
(0.93033 -0.00586579 0)
(1.15158 0.010819 0)
(0.885243 0.00093059 0)
(1.11621 0.00465955 0)
(0.898472 -0.00526562 0)
(1.12462 -0.00589719 0)
(0.916022 -0.00515019 0)
(1.13362 -0.00838421 0)
(0.901975 0.00127399 0)
(1.15407 -0.00264186 0)
(0.883883 -0.000397628 0)
(1.15141 0.008026 0)
(0.888649 0.00476495 0)
(1.14035 0.00422492 0)
(0.86817 0.00623078 0)
(1.13385 0.00465641 0)
(0.858651 -0.00178984 0)
(1.15118 0.0035074 0)
(0.842731 -0.00919695 0)
(1.13774 0.00579443 0)
(0.946215 -0.00609763 0)
(1.14293 0.011248 0)
(0.911319 0.00121599 0)
(1.10161 0.00469772 0)
(0.928677 -0.00555538 0)
(1.10319 -0.00595757 0)
(0.945328 -0.00552267 0)
(1.10787 -0.00787046 0)
(0.935308 0.000556509 0)
(1.11812 -0.00202138 0)
(0.931679 -0.000499702 0)
(1.09926 0.00791163 0)
(0.959828 0.00522691 0)
(1.06401 0.00429287 0)
(0.97017 0.00757276 0)
(1.01771 0.00369299 0)
(0.878842 -0.00192053 0)
(1.12958 0.0037594 0)
(0.871907 -0.00927228 0)
(1.11936 0.0050036 0)
(0.969048 -0.00625297 0)
(1.12421 0.0117582 0)
(0.948714 0.00157258 0)
(1.07759 0.0046343 0)
(0.964185 -0.00567476 0)
(1.07028 -0.00607053 0)
(0.98025 -0.00567703 0)
(1.07102 -0.00765117 0)
(0.978299 0.000274312 0)
(1.07462 -0.0019136 0)
(0.984501 -0.000142457 0)
(1.05052 0.00736437 0)
(1.00811 0.0060388 0)
(1.0253 0.00416377 0)
(1.00405 0.00837424 0)
(1.00363 0.00462428 0)
(0.905115 -0.00201494 0)
(1.10075 0.00388392 0)
(0.905302 -0.00932213 0)
(1.09332 0.00431445 0)
(0.990053 -0.00634139 0)
(1.0988 0.0119965 0)
(0.981604 0.00202546 0)
(1.05233 0.00454851 0)
(0.989564 -0.00559889 0)
(1.03921 -0.00623323 0)
(1.00238 -0.00570539 0)
(1.03947 -0.00763389 0)
(1.00562 0.000191522 0)
(1.04438 -0.00206051 0)
(1.01195 0.000326767 0)
(1.02937 0.00695284 0)
(1.02277 0.00652784 0)
(1.01865 0.00430006 0)
(1.00907 0.00894661 0)
(1.00741 0.00564473 0)
(0.932821 -0.00207666 0)
(1.07008 0.00393111 0)
(0.936362 -0.00933513 0)
(1.06527 0.0036891 0)
(1.00371 -0.00642236 0)
(1.07199 0.0120344 0)
(1.00204 0.00251567 0)
(1.03228 0.0045117 0)
(1.00153 -0.00542676 0)
(1.01807 -0.00638907 0)
(1.00944 -0.0057068 0)
(1.01956 -0.00769863 0)
(1.0143 6.78626e-05 0)
(1.02728 -0.00219982 0)
(1.01818 0.000611644 0)
(1.02209 0.00669919 0)
(1.02344 0.00680833 0)
(1.01694 0.00461283 0)
(1.00962 0.00945896 0)
(1.00733 0.00641659 0)
(0.95741 -0.00210353 0)
(1.04312 0.00393039 0)
(0.960853 -0.00933182 0)
(1.04074 0.00315681 0)
(1.00901 -0.00649116 0)
(1.04793 0.011999 0)
(1.01025 0.00295527 0)
(1.01922 0.00453538 0)
(1.00472 -0.00522592 0)
(1.00686 -0.00650097 0)
(1.00834 -0.0057013 0)
(1.0089 -0.00779748 0)
(1.01264 -9.61524e-05 0)
(1.01705 -0.00229148 0)
(1.01483 0.000697203 0)
(1.01667 0.00650707 0)
(1.01944 0.00703026 0)
(1.01318 0.00493136 0)
(1.00776 0.0098103 0)
(1.00516 0.00718623 0)
(0.976004 -0.00210333 0)
(1.02328 0.00390476 0)
(0.977713 -0.00931771 0)
(1.02274 0.00276291 0)
(1.0083 -0.00653004 0)
(1.02853 0.011929 0)
(1.01063 0.00329364 0)
(1.0117 0.00458216 0)
(1.0046 -0.00503192 0)
(1.00207 -0.00657289 0)
(1.0053 -0.00568281 0)
(1.00357 -0.00789231 0)
(1.00782 -0.000238575 0)
(1.01017 -0.00236931 0)
(1.00894 0.000723253 0)
(1.01055 0.00634257 0)
(1.01374 0.00718145 0)
(1.00825 0.00522985 0)
(1.00415 0.0100307 0)
(1.00233 0.00798661 0)
(0.988022 -0.00208764 0)
(1.011 0.00386983 0)
(0.988101 -0.0092906 0)
(1.01137 0.00250255 0)
(1.00491 -0.00652857 0)
(1.01404 0.0118303 0)
(1.00775 0.00351832 0)
(1.00768 0.00460112 0)
(1.0041 -0.00485976 0)
(1.00055 -0.0066167 0)
(1.00295 -0.00564214 0)
(1.00093 -0.0079492 0)
(1.00319 -0.000344813 0)
(1.00528 -0.00242783 0)
(1.0034 0.000771055 0)
(1.00457 0.00617647 0)
(1.00801 0.00726529 0)
(1.00351 0.00553999 0)
(1.00029 0.0101444 0)
(0.999578 0.00874235 0)
(0.994648 -0.00206514 0)
(1.00462 0.00382954 0)
(0.993938 -0.009249 0)
(1.00498 0.00234298 0)
(1.00134 -0.00647654 0)
(1.00401 0.0117063 0)
(1.00453 0.00363972 0)
(1.00566 0.00456237 0)
(1.00403 -0.00470833 0)
(1.00039 -0.00664091 0)
(1.00162 -0.00557246 0)
(0.999531 -0.00795966 0)
(0.999679 -0.000416631 0)
(1.00169 -0.00244977 0)
(0.999044 0.0008362 0)
(0.999604 0.00603187 0)
(1.0032 0.007292 0)
(0.999643 0.00585542 0)
(0.997138 0.0101505 0)
(0.997414 0.00941091 0)
(0.997741 -0.00204021 0)
(1.00189 0.0037814 0)
(0.996929 -0.00919055 0)
(1.00162 0.00224906 0)
(0.998699 -0.00637159 0)
(0.997698 0.0115579 0)
(1.00224 0.0036818 0)
(1.00479 0.00446322 0)
(1.00427 -0.00456875 0)
(1.00063 -0.00665101 0)
(1.00093 -0.00547311 0)
(0.998666 -0.00792653 0)
(0.997225 -0.000451342 0)
(0.999029 -0.00243686 0)
(0.995886 0.000911663 0)
(0.995937 0.00593741 0)
(0.999622 0.00724756 0)
(0.996859 0.00616069 0)
(0.994957 0.0100748 0)
(0.995998 0.00997918 0)
(0.998939 -0.00201448 0)
(1.00101 0.00372372 0)
(0.998281 -0.00911253 0)
(0.999797 0.00219174 0)
(0.997099 -0.00622566 0)
(0.994236 0.0113839 0)
(1.00112 0.00367191 0)
(1.0046 0.00431589 0)
(1.00459 -0.00442903 0)
(1.00086 -0.00665009 0)
(1.0005 -0.00534564 0)
(0.998034 -0.00785533 0)
(0.995541 -0.000456306 0)
(0.997074 -0.0023904 0)
(0.993723 0.000988757 0)
(0.993475 0.00588818 0)
(0.997215 0.00713381 0)
(0.99507 0.0064566 0)
(0.993664 0.00995474 0)
(0.99524 0.01043 0)
(0.999296 -0.0019885 0)
(1.00093 0.00365716 0)
(0.998765 -0.00901276 0)
(0.998652 0.00214969 0)
(0.99624 -0.00605482 0)
(0.992723 0.011183 0)
(1.0009 0.00363452 0)
(1.00477 0.00413623 0)
(1.00485 -0.00427855 0)
(1.00099 -0.00663873 0)
(1.00015 -0.00519391 0)
(0.997539 -0.00775246 0)
(0.99439 -0.000447339 0)
(0.995697 -0.00230818 0)
(0.992346 0.00104844 0)
(0.991983 0.00587235 0)
(0.995757 0.00697149 0)
(0.994077 0.00674029 0)
(0.993053 0.0098214 0)
(0.994973 0.0107513 0)
(0.999349 -0.0019626 0)
(1.00112 0.0035832 0)
(0.998851 -0.00889004 0)
(0.997811 0.00211012 0)
(0.995801 -0.0058724 0)
(0.992366 0.0109533 0)
(1.00119 0.00358747 0)
(1.00509 0.00393669 0)
(1.00502 -0.00410999 0)
(1.00103 -0.00661799 0)
(0.999834 -0.0050222 0)
(0.997157 -0.00762441 0)
(0.993619 -0.00043504 0)
(0.994777 -0.00219374 0)
(0.991568 0.00107896 0)
(0.991198 0.0058841 0)
(0.994996 0.00677753 0)
(0.993659 0.00699752 0)
(0.99291 0.00970527 0)
(0.995035 0.010945 0)
(0.999318 -0.0019369 0)
(1.00136 0.00350287 0)
(0.998799 -0.0087443 0)
(0.997157 0.00206685 0)
(0.995574 -0.00568682 0)
(0.992573 0.0106933 0)
(1.00166 0.00354161 0)
(1.00542 0.00372523 0)
(1.0051 -0.00392083 0)
(1.00103 -0.00658787 0)
(0.999552 -0.00483596 0)
(0.996888 -0.00747437 0)
(0.993132 -0.00042614 0)
(0.994197 -0.00204985 0)
(0.991221 0.0010746 0)
(0.990885 0.00591682 0)
(0.99469 0.00656707 0)
(0.993612 0.00721005 0)
(0.993046 0.00963332 0)
(0.995285 0.0110246 0)
(0.999282 -0.00191114 0)
(1.00157 0.00341627 0)
(0.998729 -0.00857665 0)
(0.99667 0.00201731 0)
(0.995461 -0.00550101 0)
(0.992973 0.0104031 0)
(1.0021 0.00350328 0)
(1.00569 0.00350471 0)
(1.0051 -0.00371176 0)
(1.00102 -0.00654835 0)
(0.999326 -0.00463898 0)
(0.996725 -0.0073046 0)
(0.992861 -0.000426326 0)
(0.993854 -0.00187639 0)
(0.991159 0.00103108 0)
(0.990857 0.00596183 0)
(0.994644 0.00636121 0)
(0.993771 0.00736072 0)
(0.993319 0.00961773 0)
(0.99562 0.0110132 0)
(0.999262 -0.00188477 0)
(1.0017 0.00332303 0)
(0.998682 -0.00838928 0)
(0.996345 0.00196056 0)
(0.995424 -0.00531406 0)
(0.99338 0.0100845 0)
(1.00241 0.00347402 0)
(1.00585 0.00327568 0)
(1.00503 -0.00348539 0)
(1.00101 -0.00650024 0)
(0.999164 -0.004436 0)
(0.996655 -0.007114 0)
(0.992752 -0.000445881 0)
(0.993668 -0.00167554 0)
(0.991271 0.000958238 0)
(0.990983 0.0060073 0)
(0.994718 0.00618131 0)
(0.994023 0.00744104 0)
(0.993632 0.00965371 0)
(0.995965 0.0109406 0)
(0.999258 -0.0018572 0)
(1.00175 0.00322295 0)
(0.998658 -0.00818462 0)
(0.99616 0.00189626 0)
(0.995448 -0.00512349 0)
(0.993722 0.00973976 0)
(1.00257 0.00345617 0)
(1.00592 0.00303904 0)
(1.00491 -0.00324533 0)
(1.001 -0.00644261 0)
(0.999059 -0.00423455 0)
(0.996661 -0.00690079 0)
(0.992762 -0.00049081 0)
(0.993584 -0.00145277 0)
(0.991483 0.000868175 0)
(0.991182 0.00603709 0)
(0.994831 0.0060448 0)
(0.9943 0.00745448 0)
(0.993933 0.00972118 0)
(0.996281 0.0108356 0)
(0.999266 -0.00182773 0)
(1.00175 0.00311551 0)
(0.998651 -0.00796441 0)
(0.996083 0.00182423 0)
(0.995526 -0.00492645 0)
(0.993996 0.00937221 0)
(1.00261 0.00344901 0)
(1.0059 0.00279424 0)
(1.00474 -0.00299586 0)
(1.00099 -0.00637531 0)
(0.998998 -0.00403942 0)
(0.996721 -0.00666235 0)
(0.992856 -0.000559937 0)
(0.993566 -0.00121069 0)
(0.99175 0.000771894 0)
(0.991415 0.00603962 0)
(0.994944 0.00596139 0)
(0.994575 0.00741162 0)
(0.994204 0.00979373 0)
(0.99655 0.0107247 0)
(0.999282 -0.00179593 0)
(1.00172 0.00300072 0)
(0.998653 -0.00773048 0)
(0.996078 0.00174426 0)
(0.995643 -0.0047215 0)
(0.99422 0.00898621 0)
(1.00256 0.00345033 0)
(1.00581 0.00254198 0)
(1.00454 -0.00274269 0)
(1.00098 -0.00629562 0)
(0.998967 -0.00385555 0)
(0.996815 -0.00639626 0)
(0.993009 -0.00064885 0)
(0.99359 -0.000951676 0)
(0.992047 0.000683449 0)
(0.991665 0.00600993 0)
(0.995043 0.00593158 0)
(0.99484 0.00732687 0)
(0.994449 0.00984626 0)
(0.996773 0.0106284 0)
(0.999304 -0.0017616 0)
(1.00166 0.00287905 0)
(0.99866 -0.00748496 0)
(0.996113 0.00165667 0)
(0.995789 -0.00450856 0)
(0.994416 0.00858462 0)
(1.00246 0.00345919 0)
(1.00569 0.00228477 0)
(1.00432 -0.00249115 0)
(1.00097 -0.00619846 0)
(0.998955 -0.00368794 0)
(0.996927 -0.00610569 0)
(0.9932 -0.00075131 0)
(0.993639 -0.000687602 0)
(0.99236 0.000613078 0)
(0.991929 0.00594393 0)
(0.995131 0.00594778 0)
(0.995098 0.007217 0)
(0.994679 0.00986187 0)
(0.996955 0.0105552 0)
(0.999328 -0.00172434 0)
(1.00158 0.00275016 0)
(0.998668 -0.00722863 0)
(0.996171 0.00156116 0)
(0.995951 -0.00428676 0)
(0.994599 0.00816996 0)
(1.00233 0.00347208 0)
(1.00555 0.00202512 0)
(1.00409 -0.00224502 0)
(1.00095 -0.00608228 0)
(0.998957 -0.00353966 0)
(0.997043 -0.00579281 0)
(0.993416 -0.000863108 0)
(0.993706 -0.000426972 0)
(0.99268 0.00056928 0)
(0.992211 0.00584332 0)
(0.995214 0.00599982 0)
(0.995354 0.00709684 0)
(0.994909 0.00983013 0)
(0.997108 0.0105039 0)
(0.999355 -0.00168421 0)
(1.0015 0.00261469 0)
(0.998679 -0.00696298 0)
(0.99624 0.00145897 0)
(0.99612 -0.00405726 0)
(0.994778 0.00774513 0)
(1.00219 0.00348817 0)
(1.00539 0.00176558 0)
(1.00386 -0.00200699 0)
(1.00092 -0.00594514 0)
(0.998969 -0.00341119 0)
(0.997158 -0.00546054 0)
(0.993647 -0.000978549 0)
(0.993784 -0.000175077 0)
(0.993 0.00055724 0)
(0.992512 0.00571192 0)
(0.995296 0.00607796 0)
(0.995609 0.00697956 0)
(0.995149 0.00974443 0)
(0.997239 0.0104674 0)
(0.999382 -0.00164121 0)
(1.00142 0.00247324 0)
(0.998693 -0.00668897 0)
(0.996315 0.00135139 0)
(0.996292 -0.00382229 0)
(0.994958 0.00731332 0)
(1.00204 0.00350446 0)
(1.00524 0.00150984 0)
(1.00362 -0.001782 0)
(1.00089 -0.00578489 0)
(0.998991 -0.00329997 0)
(0.997268 -0.00511378 0)
(0.993888 -0.00109179 0)
(0.993873 6.41454e-05 0)
(0.993316 0.000580506 0)
(0.992832 0.00554964 0)
(0.995383 0.00617156 0)
(0.995862 0.00687741 0)
(0.995406 0.00960404 0)
(0.997357 0.0104324 0)
(0.999411 -0.00159555 0)
(1.00134 0.00232622 0)
(0.998708 -0.00640722 0)
(0.996395 0.00123924 0)
(0.996463 -0.00358341 0)
(0.995139 0.00687819 0)
(1.00189 0.00351856 0)
(1.00508 0.0012603 0)
(1.00339 -0.00157254 0)
(1.00085 -0.00560336 0)
(0.999022 -0.00320635 0)
(0.997372 -0.00475463 0)
(0.994136 -0.00119376 0)
(0.993973 0.000283117 0)
(0.993625 0.000645193 0)
(0.993172 0.00535915 0)
(0.99548 0.00626774 0)
(0.996108 0.00679954 0)
(0.995681 0.00941517 0)
(0.997469 0.0103783 0)
(0.99944 -0.00154716 0)
(1.00126 0.00217448 0)
(0.998724 -0.00612122 0)
(0.996478 0.00112487 0)
(0.996633 -0.00334273 0)
(0.995322 0.0064412 0)
(1.00174 0.00352984 0)
(1.00493 0.00101943 0)
(1.00316 -0.00137889 0)
(1.0008 -0.00540076 0)
(0.999064 -0.00313303 0)
(0.997472 -0.00438664 0)
(0.994386 -0.00128159 0)
(0.994085 0.00047269 0)
(0.993924 0.000753873 0)
(0.993528 0.00515015 0)
(0.99559 0.00635146 0)
(0.996343 0.00675117 0)
(0.995969 0.0091906 0)
(0.997585 0.0102852 0)
(0.999471 -0.00149594 0)
(1.00117 0.00201897 0)
(0.998741 -0.00583267 0)
(0.996564 0.00101019 0)
(0.996803 -0.00310349 0)
(0.995508 0.00600411 0)
(1.00159 0.00353741 0)
(1.00477 0.000788481 0)
(1.00294 -0.00120145 0)
(1.00074 -0.00517387 0)
(0.999115 -0.00307719 0)
(0.997569 -0.0040144 0)
(0.994639 -0.00135288 0)
(0.994213 0.000633203 0)
(0.994212 0.000906449 0)
(0.993899 0.00493516 0)
(0.995717 0.00640383 0)
(0.996565 0.00673336 0)
(0.996267 0.00895179 0)
(0.997708 0.0101479 0)
(0.999501 -0.00144305 0)
(1.00109 0.00186135 0)
(0.998759 -0.00554122 0)
(0.996654 0.000898465 0)
(0.996971 -0.0028673 0)
(0.995696 0.0055719 0)
(1.00143 0.00353726 0)
(1.00462 0.000569336 0)
(1.00272 -0.0010431 0)
(1.00068 -0.00492337 0)
(0.999176 -0.00303636 0)
(0.997664 -0.00364053 0)
(0.994891 -0.0013968 0)
(0.994358 0.000762827 0)
(0.99449 0.00109946 0)
(0.994278 0.00473183 0)
(0.995867 0.0064094 0)
(0.996775 0.00673566 0)
(0.996566 0.00872057 0)
(0.997841 0.00997911 0)
(0.999532 -0.00138781 0)
(1.00101 0.00170122 0)
(0.998777 -0.00525223 0)
(0.996747 0.000790282 0)
(0.997138 -0.00263385 0)
(0.995889 0.00514332 0)
(1.00127 0.0035282 0)
(1.00446 0.000364691 0)
(1.00251 -0.000907895 0)
(1.00061 -0.00465087 0)
(0.999246 -0.00300961 0)
(0.99776 -0.00327142 0)
(0.995141 -0.00140498 0)
(0.994524 0.000857683 0)
(0.99476 0.00131828 0)
(0.994659 0.00455722 0)
(0.996038 0.00637024 0)
(0.996977 0.0067375 0)
(0.996863 0.00849886 0)
(0.997982 0.0097948 0)
(0.999563 -0.00133034 0)
(1.00094 0.00154026 0)
(0.998796 -0.00496815 0)
(0.996842 0.000685663 0)
(0.997303 -0.00240551 0)
(0.996085 0.00472135 0)
(1.00111 0.00351106 0)
(1.0043 0.000172387 0)
(1.00232 -0.000797124 0)
(1.00053 -0.00435171 0)
(0.999324 -0.00299424 0)
(0.997859 -0.00291562 0)
(0.995388 -0.00137033 0)
(0.994712 0.000917506 0)
(0.995025 0.00154363 0)
(0.995038 0.00441528 0)
(0.99623 0.00629917 0)
(0.997174 0.00673187 0)
(0.997158 0.00827796 0)
(0.99813 0.00960181 0)
(0.999593 -0.00127266 0)
(1.00086 0.00138236 0)
(0.998816 -0.00468762 0)
(0.99694 0.000586401 0)
(0.997465 -0.00218298 0)
(0.996284 0.00430699 0)
(1.00095 0.00348852 0)
(1.00414 -4.9383e-06 0)
(1.00213 -0.000712298 0)
(1.00044 -0.0040243 0)
(0.999408 -0.00298965 0)
(0.997965 -0.00257857 0)
(0.995628 -0.00129173 0)
(0.99492 0.000951443 0)
(0.995289 0.00176263 0)
(0.995411 0.00430486 0)
(0.996441 0.00620113 0)
(0.997366 0.00671914 0)
(0.997449 0.00805667 0)
(0.998288 0.00938914 0)
(0.999623 -0.00121303 0)
(1.00079 0.00122608 0)
(0.998837 -0.0044164 0)
(0.997039 0.000492772 0)
(0.997621 -0.0019667 0)
(0.996488 0.00390075 0)
(1.00079 0.00345998 0)
(1.00398 -0.000161962 0)
(1.00196 -0.000657265 0)
(1.00033 -0.00367378 0)
(0.999495 -0.00298295 0)
(0.99808 -0.00226796 0)
(0.99586 -0.00115826 0)
(0.995146 0.000974643 0)
(0.995555 0.00196141 0)
(0.995776 0.00422437 0)
(0.99667 0.00607806 0)
(0.997556 0.00669198 0)
(0.997732 0.00784563 0)
(0.998462 0.00914304 0)
(0.999653 -0.00115259 0)
(1.00072 0.00107365 0)
(0.998859 -0.00415515 0)
(0.99714 0.000403846 0)
(0.997772 -0.00175598 0)
(0.996693 0.00350338 0)
(1.00064 0.00342117 0)
(1.00381 -0.000293996 0)
(1.0018 -0.000633924 0)
(1.00022 -0.00330485 0)
(0.999583 -0.00295886 0)
(0.998209 -0.00199457 0)
(0.996084 -0.000962998 0)
(0.995385 0.0010011 0)
(0.995826 0.00212659 0)
(0.996131 0.00417089 0)
(0.996913 0.0059405 0)
(0.997748 0.00664155 0)
(0.998005 0.00765858 0)
(0.99865 0.00887187 0)
(0.999681 -0.00109235 0)
(1.00066 0.000927664 0)
(0.998883 -0.00390241 0)
(0.997245 0.00031701 0)
(0.997915 -0.0015462 0)
(0.9969 0.00311033 0)
(1.00048 0.00337303 0)
(1.00363 -0.000398633 0)
(1.00167 -0.000643024 0)
(1.00011 -0.00292363 0)
(0.999667 -0.00290515 0)
(0.998355 -0.00177036 0)
(0.996302 -0.000728364 0)
(0.995631 0.00104015 0)
(0.996102 0.00225163 0)
(0.996478 0.00413612 0)
(0.997166 0.00580015 0)
(0.997945 0.00655776 0)
(0.998266 0.0074888 0)
(0.998851 0.00859788 0)
(0.999709 -0.00103088 0)
(1.0006 0.000786129 0)
(0.998908 -0.00365819 0)
(0.997352 0.000228844 0)
(0.998051 -0.00133805 0)
(0.997107 0.00272994 0)
(1.00034 0.0033084 0)
(1.00345 -0.000471743 0)
(1.00155 -0.000687645 0)
(0.999988 -0.00254636 0)
(0.999742 -0.00280904 0)
(0.998518 -0.00159471 0)
(0.996517 -0.000476029 0)
(0.995876 0.00110085 0)
(0.996385 0.00234003 0)
(0.996817 0.00410794 0)
(0.997424 0.00566744 0)
(0.998148 0.0064423 0)
(0.99852 0.00731572 0)
(0.999057 0.00833828 0)
(0.999735 -0.000970439 0)
(1.00054 0.000651668 0)
(0.998933 -0.00342052 0)
(0.997462 0.000135146 0)
(0.99818 -0.00112943 0)
(0.997311 0.00236745 0)
(1.00019 0.00322696 0)
(1.00326 -0.000499063 0)
(1.00144 -0.000758714 0)
(0.999873 -0.00217979 0)
(0.999805 -0.00266484 0)
(0.998698 -0.00145309 0)
(0.996735 -0.00021765 0)
(0.996117 0.00119053 0)
(0.996671 0.00240295 0)
(0.997152 0.00407653 0)
(0.997683 0.00555035 0)
(0.998354 0.00631187 0)
(0.99877 0.00712576 0)
(0.999268 0.00809152 0)
(0.999761 -0.000909045 0)
(1.00048 0.000520442 0)
(0.998957 -0.00318784 0)
(0.997575 3.2234e-05 0)
(0.998301 -0.00092207 0)
(0.997511 0.00202685 0)
(1.00006 0.00312363 0)
(1.00305 -0.000482763 0)
(1.00136 -0.000841454 0)
(0.999765 -0.00183535 0)
(0.999855 -0.00246767 0)
(0.99889 -0.00133106 0)
(0.996958 2.46969e-05 0)
(0.996351 0.00130556 0)
(0.996957 0.0024476 0)
(0.997486 0.00403096 0)
(0.997943 0.00544688 0)
(0.998557 0.00618545 0)
(0.999017 0.0069195 0)
(0.999487 0.00783883 0)
(0.999784 -0.000847474 0)
(1.00043 0.000394031 0)
(0.998981 -0.00295584 0)
(0.997691 -8.17174e-05 0)
(0.998416 -0.000719386 0)
(0.997706 0.00171484 0)
(0.999937 0.00298696 0)
(1.00284 -0.0004294 0)
(1.00129 -0.000925465 0)
(0.99967 -0.00152937 0)
(0.99989 -0.0022245 0)
(0.999091 -0.00122141 0)
(0.997191 0.000233869 0)
(0.996576 0.00143777 0)
(0.997236 0.00248018 0)
(0.997819 0.00396506 0)
(0.998206 0.00534649 0)
(0.998755 0.00607507 0)
(0.999255 0.00671284 0)
(0.999715 0.00756918 0)
(0.999806 -0.000785485 0)
(1.00038 0.000271133 0)
(0.999003 -0.00272206 0)
(0.99781 -0.000203311 0)
(0.998525 -0.000526573 0)
(0.997893 0.00143985 0)
(0.999826 0.00281616 0)
(1.00262 -0.000343303 0)
(1.00122 -0.000996343 0)
(0.999591 -0.0012662 0)
(0.999911 -0.00195201 0)
(0.999294 -0.00111752 0)
(0.997435 0.000409412 0)
(0.996794 0.00157621 0)
(0.997504 0.00250533 0)
(0.998153 0.00387881 0)
(0.998478 0.00523685 0)
(0.998946 0.00598043 0)
(0.999478 0.00652395 0)
(0.999951 0.00728658 0)
(0.999827 -0.000722407 0)
(1.00034 0.000148082 0)
(0.999023 -0.00248697 0)
(0.997932 -0.00032722 0)
(0.998629 -0.000358876 0)
(0.99807 0.00121762 0)
(0.999728 0.00261565 0)
(1.0024 -0.000236978 0)
(1.00116 -0.00103797 0)
(0.999531 -0.0010438 0)
(0.999919 -0.00166449 0)
(0.999495 -0.00100514 0)
(0.997692 0.000556728 0)
(0.997006 0.00171614 0)
(0.997756 0.00253262 0)
(0.998483 0.00377955 0)
(0.998762 0.00511131 0)
(0.999136 0.00589188 0)
(0.999678 0.00636195 0)
(1.00018 0.00700498 0)
(0.999845 -0.000659174 0)
(1.0003 3.0869e-05 0)
(0.999042 -0.00225466 0)
(0.998054 -0.000447577 0)
(0.998731 -0.000225584 0)
(0.998233 0.00104644 0)
(0.999642 0.00240216 0)
(1.00217 -0.00012433 0)
(1.00111 -0.0010356 0)
(0.999489 -0.000851164 0)
(0.999919 -0.0013752 0)
(0.99969 -0.000880585 0)
(0.99796 0.000674315 0)
(0.997214 0.00185182 0)
(0.997989 0.0025687 0)
(0.998807 0.00367412 0)
(0.999059 0.00496714 0)
(0.999329 0.00579649 0)
(0.999856 0.00622517 0)
(1.00041 0.00673746 0)
(0.999862 -0.000595041 0)
(1.00026 -8.27823e-05 0)
(0.999058 -0.00202432 0)
(0.998175 -0.000559964 0)
(0.998832 -0.000135612 0)
(0.998385 0.000923703 0)
(0.999568 0.00218588 0)
(1.00194 -2.24805e-05 0)
(1.00105 -0.000992398 0)
(0.999464 -0.000682393 0)
(0.99991 -0.00109747 0)
(0.999873 -0.000746728 0)
(0.998238 0.000765778 0)
(0.997422 0.00198436 0)
(0.998201 0.00262007 0)
(0.999117 0.00356664 0)
(0.999369 0.00480217 0)
(0.999533 0.00568356 0)
(1.00001 0.00610821 0)
(1.00061 0.00649517 0)
(0.999877 -0.000531621 0)
(1.00023 -0.000192366 0)
(0.999072 -0.00180061 0)
(0.998294 -0.000653959 0)
(0.998936 -0.00010049 0)
(0.998525 0.000846101 0)
(0.999502 0.00197948 0)
(1.00172 5.95813e-05 0)
(1.001 -0.000924786 0)
(0.999452 -0.000528564 0)
(0.999897 -0.000828501 0)
(1.00005 -0.00060752 0)
(0.998525 0.000831201 0)
(0.997633 0.00210666 0)
(0.998389 0.00268984 0)
(0.999407 0.00346652 0)
(0.999688 0.00461789 0)
(0.999754 0.00554495 0)
(1.00015 0.00600048 0)
(1.00078 0.00628924 0)
(0.99989 -0.000467697 0)
(1.00021 -0.000295929 0)
(0.999086 -0.00159279 0)
(0.998405 -0.000717897 0)
(0.999043 -0.000114552 0)
(0.998656 0.000796014 0)
(0.999441 0.0018006 0)
(1.00151 0.000129187 0)
(1.00095 -0.000841905 0)
(0.999454 -0.000384312 0)
(0.999879 -0.000568028 0)
(1.0002 -0.000462166 0)
(0.998821 0.000872017 0)
(0.997854 0.0022056 0)
(0.998554 0.00277452 0)
(0.999667 0.00338609 0)
(1.00001 0.00442004 0)
(0.999997 0.0053767 0)
(1.00029 0.00588503 0)
(1.00091 0.00612625 0)
(0.999901 -0.000405036 0)
(1.00019 -0.000391778 0)
(0.999101 -0.00140339 0)
(0.998508 -0.000746854 0)
(0.999154 -0.000164647 0)
(0.998784 0.000755032 0)
(0.999386 0.00166276 0)
(1.00131 0.00018675 0)
(1.0009 -0.000753656 0)
(0.999469 -0.000243862 0)
(0.999858 -0.000316719 0)
(1.00034 -0.000309462 0)
(0.99912 0.000891739 0)
(0.998089 0.00227352 0)
(0.9987 0.0028705 0)
(0.999892 0.00333976 0)
(1.00033 0.00422343 0)
(1.00026 0.00518195 0)
(1.00043 0.00574437 0)
(1.00101 0.00599228 0)
(0.999911 -0.000344192 0)
(1.00017 -0.00047844 0)
(0.999119 -0.00123531 0)
(0.9986 -0.000734655 0)
(0.999268 -0.000247307 0)
(0.998913 0.000700447 0)
(0.999333 0.00156711 0)
(1.00111 0.000237052 0)
(1.00085 -0.000671973 0)
(0.999499 -0.000115282 0)
(0.999834 -7.13584e-05 0)
(1.00045 -0.000146551 0)
(0.999419 0.000891379 0)
(0.998344 0.00230062 0)
(0.998838 0.002958 0)
(1.00008 0.0033271 0)
(1.00062 0.00404622 0)
(1.00054 0.00497194 0)
(1.0006 0.00557549 0)
(1.00109 0.0058554 0)
(0.999919 -0.000285498 0)
(1.00017 -0.000556066 0)
(0.999143 -0.00109015 0)
(0.99868 -0.00068711 0)
(0.999379 -0.000342306 0)
(0.999048 0.000617669 0)
(0.999288 0.00150464 0)
(1.00091 0.000301586 0)
(1.00081 -0.000595231 0)
(0.999545 -3.78002e-06 0)
(0.999812 0.000168145 0)
(1.00053 3.03807e-05 0)
(0.999709 0.000888152 0)
(0.99862 0.00229106 0)
(0.998978 0.00302172 0)
(1.00023 0.00333707 0)
(1.00089 0.00389838 0)
(1.00083 0.00475841 0)
(1.00078 0.00539214 0)
(1.00118 0.00569599 0)
(0.999927 -0.00023 0)
(1.00016 -0.000622972 0)
(0.999175 -0.00097081 0)
(0.998748 -0.000606257 0)
(0.999484 -0.000433947 0)
(0.999194 0.000496189 0)
(0.999256 0.00146427 0)
(1.00072 0.000392787 0)
(1.00076 -0.000519218 0)
(0.999611 8.6416e-05 0)
(0.999796 0.0003943 0)
(1.00059 0.00022374 0)
(0.999984 0.000894772 0)
(0.998915 0.00224372 0)
(0.999127 0.0030552 0)
(1.00035 0.00335799 0)
(1.00112 0.00378119 0)
(1.00111 0.00454541 0)
(1.00098 0.00520482 0)
(1.00127 0.00551688 0)
(0.999934 -0.000179727 0)
(1.00016 -0.000674178 0)
(0.999218 -0.000878144 0)
(0.998806 -0.000503462 0)
(0.999577 -0.000502548 0)
(0.999352 0.000339813 0)
(0.999245 0.00142579 0)
(1.00052 0.000515555 0)
(1.00072 -0.000430536 0)
(0.999696 0.000141779 0)
(0.999795 0.000590616 0)
(1.00062 0.000439346 0)
(1.00023 0.000923535 0)
(0.999223 0.00216561 0)
(0.999296 0.00304822 0)
(1.00045 0.00337399 0)
(1.00132 0.00369049 0)
(1.00139 0.00433203 0)
(1.00119 0.00500864 0)
(1.00138 0.00533335 0)
(0.99994 -0.000135409 0)
(1.00017 -0.000707697 0)
(0.999273 -0.000811689 0)
(0.998858 -0.000391522 0)
(0.999655 -0.000528948 0)
(0.999521 0.000168198 0)
(0.999263 0.00136829 0)
(1.00033 0.000660902 0)
(1.00066 -0.000318627 0)
(0.999797 0.000173435 0)
(0.999818 0.000747523 0)
(1.00064 0.00066336 0)
(1.00045 0.000982714 0)
(0.999535 0.0020827 0)
(0.999489 0.00300114 0)
(1.00054 0.00337192 0)
(1.00147 0.00362443 0)
(1.00166 0.00412936 0)
(1.00142 0.0047933 0)
(1.00149 0.00515405 0)
(0.999946 -9.94847e-05 0)
(1.00017 -0.000718775 0)
(0.999341 -0.000774611 0)
(0.998908 -0.000275311 0)
(0.999713 -0.000510795 0)
(0.999695 -8.02822e-06 0)
(0.999315 0.00127486 0)
(1.00016 0.000823201 0)
(1.00059 -0.00017017 0)
(0.999909 0.000197918 0)
(0.999869 0.000860008 0)
(1.00064 0.000875281 0)
(1.00062 0.00107394 0)
(0.99984 0.00201204 0)
(0.999703 0.00292471 0)
(1.00064 0.00333968 0)
(1.00159 0.00357016 0)
(1.00189 0.00395601 0)
(1.00166 0.00456101 0)
(1.00162 0.00497471 0)
(0.999952 -7.28213e-05 0)
(1.00018 -0.00070501 0)
(0.999419 -0.000762301 0)
(0.998961 -0.000169906 0)
(0.999751 -0.000439509 0)
(0.999866 -0.000176969 0)
(0.999409 0.00112878 0)
(1.00001 0.000986438 0)
(1.0005 1.95152e-05 0)
(1.00002 0.000226158 0)
(0.999951 0.000921794 0)
(1.00065 0.00105825 0)
(1.00077 0.00119159 0)
(1.00013 0.00196141 0)
(0.99993 0.0028375 0)
(1.00075 0.00328369 0)
(1.0017 0.0035103 0)
(1.00209 0.00381546 0)
(1.0019 0.00432657 0)
(1.00176 0.00477984 0)
(0.999958 -5.46794e-05 0)
(1.00018 -0.000669722 0)
(0.999506 -0.000763719 0)
(0.999024 -8.57333e-05 0)
(0.999767 -0.000328157 0)
(1.00002 -0.000308552 0)
(0.999544 0.000921449 0)
(0.999898 0.00111284 0)
(1.0004 0.00024556 0)
(1.00012 0.000280895 0)
(1.00006 0.000944983 0)
(1.00068 0.00120426 0)
(1.00088 0.00132028 0)
(1.00039 0.001937 0)
(1.00017 0.0027485 0)
(1.00087 0.00321756 0)
(1.00179 0.00344188 0)
(1.00225 0.00369508 0)
(1.00214 0.00410825 0)
(1.00193 0.00455983 0)
(0.999965 -4.61117e-05 0)
(1.00017 -0.000612299 0)
(0.999597 -0.000772415 0)
(0.9991 -2.82973e-05 0)
(0.999767 -0.000200579 0)
(1.00015 -0.000376 0)
(0.999712 0.000687561 0)
(0.999841 0.00118026 0)
(1.00029 0.000501564 0)
(1.00019 0.000376789 0)
(1.00019 0.000951295 0)
(1.00073 0.00129936 0)
(1.00098 0.00144044 0)
(1.00062 0.00193965 0)
(1.0004 0.00266353 0)
(1.001 0.00314107 0)
(1.00187 0.00337033 0)
(1.00239 0.00358565 0)
(1.00235 0.00391894 0)
(1.00211 0.0043273 0)
(0.999972 -4.40652e-05 0)
(1.00017 -0.000542934 0)
(0.99969 -0.00077715 0)
(0.99919 -5.36474e-06 0)
(0.999758 -6.927e-05 0)
(1.00025 -0.000372535 0)
(0.999901 0.000464312 0)
(0.999845 0.00116666 0)
(1.00018 0.000748196 0)
(1.00023 0.000525039 0)
(1.00031 0.000964183 0)
(1.00081 0.00134688 0)
(1.00108 0.00153357 0)
(1.00083 0.00195437 0)
(1.00063 0.00259122 0)
(1.00114 0.00305235 0)
(1.00196 0.00329027 0)
(1.00251 0.00348092 0)
(1.00253 0.00375457 0)
(1.0023 0.00409855 0)
(0.99998 -4.81202e-05 0)
(1.00015 -0.000468033 0)
(0.999778 -0.000769072 0)
(0.999294 -1.15156e-05 0)
(0.99975 6.29253e-05 0)
(1.00031 -0.000302785 0)
(1.00009 0.000275457 0)
(0.999909 0.00107661 0)
(1.00011 0.000951349 0)
(1.00024 0.000713237 0)
(1.00043 0.000999778 0)
(1.0009 0.00137117 0)
(1.00118 0.00159352 0)
(1.00102 0.00196299 0)
(1.00085 0.00252894 0)
(1.00129 0.00296394 0)
(1.00205 0.00319948 0)
(1.00261 0.00337712 0)
(1.00269 0.00360995 0)
(1.00249 0.00388871 0)
(0.999988 -5.67632e-05 0)
(1.00014 -0.000388619 0)
(0.999858 -0.000745162 0)
(0.999413 -3.60017e-05 0)
(0.999751 0.000178755 0)
(1.00034 -0.000188998 0)
(1.00026 0.000148327 0)
(1.00002 0.000938321 0)
(1.00008 0.00109099 0)
(1.00024 0.000910112 0)
(1.00052 0.00106958 0)
(1.00099 0.00138563 0)
(1.00128 0.00162848 0)
(1.0012 0.00196 0)
(1.00106 0.00246321 0)
(1.00144 0.00287978 0)
(1.00214 0.00310666 0)
(1.0027 0.00326773 0)
(1.00282 0.00347791 0)
(1.00265 0.00370428 0)
(0.999995 -6.60643e-05 0)
(1.00012 -0.000314322 0)
(0.999926 -0.000697632 0)
(0.999541 -7.73507e-05 0)
(0.999767 0.000264446 0)
(1.00035 -6.22295e-05 0)
(1.00041 9.30325e-05 0)
(1.00018 0.0007846 0)
(1.0001 0.00114372 0)
(1.00023 0.00109422 0)
(1.00058 0.00117431 0)
(1.00109 0.00140603 0)
(1.00139 0.00164681 0)
(1.00137 0.00195163 0)
(1.00126 0.00239124 0)
(1.00159 0.00278568 0)
(1.00222 0.00301532 0)
(1.0028 0.00315193 0)
(1.00294 0.00334373 0)
(1.0028 0.00354111 0)
(1 -7.46993e-05 0)
(1.00009 -0.000247058 0)
(0.999979 -0.000625676 0)
(0.999672 -0.000123266 0)
(0.9998 0.000315375 0)
(1.00034 8.04169e-05 0)
(1.00052 0.000101775 0)
(1.00034 0.000654236 0)
(1.00017 0.00111779 0)
(1.00025 0.0012325 0)
(1.00062 0.00128869 0)
(1.00116 0.00144375 0)
(1.00149 0.00165339 0)
(1.00152 0.00193695 0)
(1.00145 0.00232445 0)
(1.00174 0.00268041 0)
(1.00231 0.00291731 0)
(1.00288 0.00304094 0)
(1.00305 0.00320169 0)
(1.00292 0.00339063 0)
(1.00001 -8.02718e-05 0)
(1.00007 -0.000190733 0)
(1.00002 -0.000535584 0)
(0.999799 -0.000157084 0)
(0.999854 0.00032928 0)
(1.00033 0.000222464 0)
(1.00059 0.000161736 0)
(1.0005 0.000563494 0)
(1.00029 0.00105917 0)
(1.00029 0.00130405 0)
(1.00065 0.00139709 0)
(1.00122 0.00149651 0)
(1.00159 0.00166408 0)
(1.00167 0.00191259 0)
(1.00162 0.00226162 0)
(1.00189 0.00257649 0)
(1.0024 0.00280266 0)
(1.00294 0.00293193 0)
(1.00316 0.00305611 0)
(1.00304 0.00323575 0)
(1.00002 -8.11748e-05 0)
(1.00006 -0.000147756 0)
(1.00004 -0.000435292 0)
(0.999915 -0.000169682 0)
(0.999925 0.000323428 0)
(1.00033 0.000334571 0)
(1.00064 0.000256307 0)
(1.00064 0.000518313 0)
(1.00043 0.000990362 0)
(1.00036 0.00131775 0)
(1.00068 0.0014764 0)
(1.00125 0.00155153 0)
(1.00166 0.00168043 0)
(1.0018 0.00188868 0)
(1.00178 0.00219487 0)
(1.00202 0.00248087 0)
(1.0025 0.00268013 0)
(1.00301 0.00281407 0)
(1.00324 0.00291685 0)
(1.00315 0.00307103 0)
(1.00002 -7.82065e-05 0)
(1.00005 -0.000114486 0)
(1.00006 -0.000333823 0)
(1.00002 -0.000158017 0)
(1.00001 0.000308426 0)
(1.00033 0.00041977 0)
(1.00067 0.000361006 0)
(1.00075 0.000526042 0)
(1.00057 0.000925556 0)
(1.00047 0.00130034 0)
(1.00073 0.00151468 0)
(1.00128 0.00159731 0)
(1.00172 0.00169483 0)
(1.00191 0.00186995 0)