/*--------------------------------*- C++ -*----------------------------------*\
| =========                 |                                                 |
| \\      /  F ield         | OpenFOAM: The Open Source CFD Toolbox           |
|  \\    /   O peration     | Version:  2106                                  |
|   \\  /    A nd           | Website:  www.openfoam.com                      |
|    \\/     M anipulation  |                                                 |
\*---------------------------------------------------------------------------*/
FoamFile
{
    version     2.0;
    format      ascii;
    arch        "LSB;label=32;scalar=64";
    class       volVectorField;
    location    "0.67";
    object      U;
}
// * * * * * * * * * * * * * * * * * * * * * * * * * * * * * * * * * * * * * //

dimensions      [0 1 -1 0 0 0 0];

internalField   nonuniform List<vector> 
9600
(
(0.826996 -0.00742619 0)
(1.14363 0.00844071 0)
(0.918822 -0.00493126 0)
(1.16927 0.0107038 0)
(0.883008 -0.000885365 0)
(1.12088 -0.00363506 0)
(0.885153 -0.00774526 0)
(1.14831 -0.00550442 0)
(0.890467 0.00200072 0)
(1.17314 0.00266241 0)
(0.890422 -0.000224484 0)
(1.15847 0.0055273 0)
(0.890743 0.00400281 0)
(1.1305 0.00577061 0)
(0.898628 -0.00046855 0)
(1.13029 0.00283634 0)
(0.893587 -0.00163763 0)
(1.13088 0.00134163 0)
(0.880161 -0.000742543 0)
(1.13816 0.000396164 0)
(0.83979 -0.00731337 0)
(1.13755 0.0080107 0)
(0.932485 -0.00527211 0)
(1.16163 0.0109947 0)
(0.908062 -0.000569892 0)
(1.10934 -0.00343721 0)
(0.907477 -0.00827771 0)
(1.13411 -0.00534292 0)
(0.912068 0.00141807 0)
(1.1534 0.00290618 0)
(0.920363 -0.000256058 0)
(1.13197 0.00572462 0)
(0.930582 0.00433995 0)
(1.09338 0.00577909 0)
(0.951335 -0.000590449 0)
(1.07688 0.00294047 0)
(0.9672 -0.00145134 0)
(1.05234 0.00135192 0)
(0.983567 -0.000139183 0)
(1.02145 0.000547644 0)
(0.861799 -0.00724196 0)
(1.12311 0.00740519 0)
(0.95216 -0.00557698 0)
(1.14529 0.0113691 0)
(0.943307 -0.000187434 0)
(1.08783 -0.00328863 0)
(0.938853 -0.00869464 0)
(1.10609 -0.00526332 0)
(0.949527 0.000991495 0)
(1.11967 0.00296863 0)
(0.96634 -6.7953e-05 0)
(1.09168 0.00572396 0)
(0.979809 0.00494422 0)
(1.05362 0.00546402 0)
(0.995413 -0.000196849 0)
(1.03611 0.00251541 0)
(1.00519 -0.000689857 0)
(1.01787 0.000680449 0)
(1.00792 0.0010855 0)
(1.00529 0.000591541 0)
(0.889928 -0.00721439 0)
(1.10116 0.00683705 0)
(0.971137 -0.00580547 0)
(1.1216 0.0115237 0)
(0.976266 0.000261543 0)
(1.06155 -0.00313972 0)
(0.96742 -0.00892959 0)
(1.07149 -0.00535816 0)
(0.986166 0.000756381 0)
(1.08483 0.00279907 0)
(1.00427 0.000294073 0)
(1.05865 0.00558857 0)
(1.01116 0.00550568 0)
(1.03295 0.00527417 0)
(1.0129 0.000149532 0)
(1.02042 0.0023085 0)
(1.01263 -0.000262783 0)
(1.01091 0.000617223 0)
(1.00778 0.00154317 0)
(1.00519 0.00117186 0)
(0.919876 -0.00720021 0)
(1.07524 0.0063295 0)
(0.985477 -0.00600159 0)
(1.09388 0.0114759 0)
(0.999296 0.000781748 0)
(1.03777 -0.00297858 0)
(0.986222 -0.00902996 0)
(1.04039 -0.00560678 0)
(1.00944 0.000531035 0)
(1.0579 0.00257025 0)
(1.02333 0.000648524 0)
(1.03926 0.00552137 0)
(1.0231 0.00589615 0)
(1.02544 0.00529092 0)
(1.01612 0.000497937 0)
(1.01428 0.00223859 0)
(1.01148 0.00012981 0)
(1.008 0.000575141 0)
(1.00583 0.00199815 0)
(1.003 0.00165931 0)
(0.947151 -0.00718721 0)
(1.04999 0.00589644 0)
(0.994035 -0.00616491 0)
(1.06624 0.0113341 0)
(1.01061 0.00129081 0)
(1.02098 -0.00280977 0)
(0.995213 -0.00903225 0)
(1.01863 -0.00592958 0)
(1.01768 0.000259006 0)
(1.03962 0.00238216 0)
(1.02691 0.000920817 0)
(1.02819 0.00552507 0)
(1.0237 0.00614889 0)
(1.02105 0.00541094 0)
(1.01419 0.00087615 0)
(1.00977 0.00223203 0)
(1.00822 0.000463529 0)
(1.00479 0.000557287 0)
(1.00313 0.00240264 0)
(1.00031 0.00218625 0)
(0.968616 -0.00717012 0)
(1.02917 0.00556949 0)
(0.997797 -0.00628114 0)
(1.04205 0.0111618 0)
(1.013 0.00170636 0)
(1.01145 -0.00264484 0)
(0.99826 -0.00896679 0)
(1.00627 -0.0062443 0)
(1.01602 -2.8068e-05 0)
(1.02696 0.00223419 0)
(1.02244 0.00111879 0)
(1.01988 0.00553624 0)
(1.01916 0.00632961 0)
(1.01612 0.00553833 0)
(1.01042 0.001263 0)
(1.00572 0.00224478 0)
(1.00447 0.000761436 0)
(1.00163 0.000584422 0)
(1.00007 0.00271345 0)
(0.997822 0.00274533 0)
(0.983281 -0.00714381 0)
(1.01444 0.00535073 0)
(0.998691 -0.00634433 0)
(1.02317 0.0109888 0)
(1.01083 0.00199401 0)
(1.00704 -0.00250729 0)
(0.999095 -0.00885915 0)
(1.00038 -0.00649631 0)
(1.0104 -0.000282874 0)
(1.0175 0.00210147 0)
(1.01542 0.00127568 0)
(1.01242 0.00553093 0)
(1.01298 0.00646605 0)
(1.0109 0.00563038 0)
(1.0064 0.00162025 0)
(1.00241 0.00225968 0)
(1.00136 0.00101871 0)
(0.999065 0.000648818 0)
(0.997551 0.00294127 0)
(0.995869 0.00331108 0)
(0.991989 -0.00710612 0)
(1.00541 0.00521218 0)
(0.998435 -0.00635284 0)
(1.00998 0.0108271 0)
(1.00758 0.0021549 0)
(1.00539 -0.00241718 0)
(0.999577 -0.00872525 0)
(0.997966 -0.00666402 0)
(1.00459 -0.000472893 0)
(1.01023 0.00197589 0)
(1.00866 0.00141648 0)
(1.00593 0.00550732 0)
(1.00715 0.0065612 0)
(1.00635 0.00566968 0)
(1.00313 0.00192136 0)
(1.0001 0.00226533 0)
(0.999325 0.00122855 0)
(0.99741 0.000758879 0)
(0.995941 0.00310024 0)
(0.994669 0.00385853 0)
(0.996479 -0.00705748 0)
(1.00056 0.00512051 0)
(0.998003 -0.00631042 0)
(1.00176 0.0106734 0)
(1.00505 0.0022159 0)
(1.00494 -0.00237674 0)
(1.00011 -0.00857213 0)
(0.997045 -0.00675199 0)
(1.00011 -0.000588353 0)
(1.00481 0.00185943 0)
(1.00326 0.00155282 0)
(1.00086 0.00546429 0)
(1.00266 0.0066126 0)
(1.00303 0.00565292 0)
(1.00096 0.00215587 0)
(0.998759 0.00226353 0)
(0.998282 0.00138878 0)
(0.99661 0.000916841 0)
(0.995164 0.00320805 0)
(0.99415 0.00436769 0)
(0.998486 -0.00699864 0)
(0.998216 0.00504952 0)
(0.997702 -0.00622762 0)
(0.997296 0.0105179 0)
(1.0037 0.00221304 0)
(1.00494 -0.00237447 0)
(1.00056 -0.00840113 0)
(0.996592 -0.006777 0)
(0.997124 -0.000637617 0)
(1.00103 0.00175436 0)
(0.999455 0.00168716 0)
(0.997383 0.00540138 0)
(0.999734 0.00661858 0)
(1.00101 0.00558927 0)
(0.999812 0.00232593 0)
(0.998191 0.00226658 0)
(0.997919 0.00150477 0)
(0.996399 0.00111665 0)
(0.994955 0.00328963 0)
(0.994085 0.00482344 0)
(0.999273 -0.00693019 0)
(0.997108 0.00498294 0)
(0.997507 -0.00611744 0)
(0.995277 0.0103517 0)
(1.0033 0.00217708 0)
(1.00509 -0.00239498 0)
(1.00081 -0.0082099 0)
(0.996209 -0.00675842 0)
(0.995275 -0.000638678 0)
(0.998576 0.00165964 0)
(0.997062 0.00181583 0)
(0.995338 0.00531955 0)
(0.998153 0.00658172 0)
(1.00003 0.00549608 0)
(0.999391 0.0024397 0)
(0.998121 0.00228607 0)
(0.997941 0.00158633 0)
(0.996507 0.00134837 0)
(0.995058 0.00337314 0)
(0.994258 0.00521335 0)
(0.999566 -0.00685264 0)
(0.996516 0.00491348 0)
(0.997338 -0.00599086 0)
(0.994639 0.010167 0)
(1.00345 0.00212939 0)
(1.00528 -0.00242562 0)
(1.00087 -0.00799517 0)
(0.995815 -0.00671264 0)
(0.994147 -0.00060957 0)
(0.997088 0.00156968 0)
(0.99574 0.00193382 0)
(0.994382 0.00522275 0)
(0.997523 0.00650593 0)
(0.999737 0.00539186 0)
(0.999408 0.00251045 0)
(0.998317 0.00232773 0)
(0.99814 0.0016463 0)
(0.996749 0.00159667 0)
(0.995295 0.00348388 0)
(0.994533 0.0055264 0)
(0.999699 -0.00676633 0)
(0.99612 0.00483901 0)
(0.997165 -0.00585513 0)
(0.994658 0.00995896 0)
(1.00382 0.00208224 0)
(1.00548 -0.00245916 0)
(1.00081 -0.00775516 0)
(0.99545 -0.00665075 0)
(0.993448 -0.000564091 0)
(0.996241 0.00147786 0)
(0.995123 0.00203633 0)
(0.994126 0.00511668 0)
(0.997462 0.00639483 0)
(0.999815 0.00529317 0)
(0.999633 0.00254926 0)
(0.998613 0.00239365 0)
(0.998394 0.00170279 0)
(0.997025 0.00184351 0)
(0.995574 0.00364003 0)
(0.994841 0.00576678 0)
(0.999792 -0.00667156 0)
(0.995821 0.00475903 0)
(0.997006 -0.00571358 0)
(0.99492 0.00972516 0)
(1.00418 0.00204158 0)
(1.00565 -0.00249275 0)
(1.00071 -0.00749075 0)
(0.995166 -0.00657845 0)
(0.993016 -0.000511453 0)
(0.995779 0.00138165 0)
(0.994908 0.0021186 0)
(0.994233 0.00500727 0)
(0.997665 0.00625184 0)
(1.00003 0.00521124 0)
(0.999907 0.00256283 0)
(0.99891 0.00248036 0)
(0.998638 0.0017759 0)
(0.997294 0.00206648 0)
(0.995857 0.00383929 0)
(0.995157 0.00595765 0)
(0.999874 -0.00656879 0)
(0.995602 0.0046732 0)
(0.996888 -0.00556652 0)
(0.99522 0.00946555 0)
(1.00443 0.00200992 0)
(1.00576 -0.00252709 0)
(1.0006 -0.0072036 0)
(0.994991 -0.00649958 0)
(0.992767 -0.000457198 0)
(0.995535 0.00128142 0)
(0.99489 0.00217775 0)
(0.994471 0.00490158 0)
(0.997939 0.0060788 0)
(1.00024 0.00514612 0)
(1.00014 0.00256306 0)
(0.999159 0.00257459 0)
(0.998839 0.0018825 0)
(0.99754 0.0022555 0)
(0.996132 0.00406187 0)
(0.995474 0.00611777 0)
(0.999944 -0.0064585 0)
(0.995461 0.0045809 0)
(0.996825 -0.00541267 0)
(0.995481 0.0091819 0)
(1.00454 0.00198854 0)
(1.00579 -0.00256353 0)
(1.0005 -0.00689671 0)
(0.994924 -0.00641593 0)
(0.992657 -0.000402445 0)
(0.995413 0.00118057 0)
(0.994953 0.00221143 0)
(0.994718 0.00480412 0)
(0.998179 0.00588083 0)
(1.00037 0.00509412 0)
(1.0003 0.00255909 0)
(0.999342 0.00266436 0)
(0.99899 0.00202959 0)
(0.997761 0.00241859 0)
(0.996401 0.00428882 0)
(0.995788 0.00626448 0)
(0.999999 -0.00634114 0)
(0.995385 0.00448114 0)
(0.996818 -0.00525029 0)
(0.99569 0.00887659 0)
(1.00452 0.00197805 0)
(1.00577 -0.00260469 0)
(1.00041 -0.0065733 0)
(0.994945 -0.00632682 0)
(0.992657 -0.000348356 0)
(0.995366 0.00108352 0)
(0.995045 0.0022185 0)
(0.994929 0.00472092 0)
(0.998354 0.00565831 0)
(1.00043 0.00505497 0)
(1.00038 0.00255856 0)
(0.999465 0.00273782 0)
(0.999093 0.00222009 0)
(0.997958 0.00256963 0)
(0.996663 0.00449929 0)
(0.996097 0.00641754 0)
(1.00004 -0.00621709 0)
(0.99536 0.00437318 0)
(0.996855 -0.00507809 0)
(0.995857 0.00855177 0)
(1.00442 0.00197824 0)
(1.00568 -0.00265198 0)
(1.00034 -0.00623676 0)
(0.995029 -0.00623258 0)
(0.992738 -0.000298414 0)
(0.995368 0.000995941 0)
(0.995151 0.00219786 0)
(0.995098 0.00465329 0)
(0.998467 0.0054179 0)
(1.00042 0.00502033 0)
(1.00039 0.00257413 0)
(0.99954 0.00278392 0)
(0.999156 0.00244617 0)
(0.998131 0.00272174 0)
(0.996924 0.00467006 0)
(0.996398 0.00657788 0)
(1.00007 -0.00608657 0)
(0.995369 0.00425627 0)
(0.996924 -0.00489499 0)
(0.996 0.00820966 0)
(1.00426 0.00198756 0)
(1.00556 -0.00270419 0)
(1.00027 -0.00589293 0)
(0.995153 -0.00613184 0)
(0.992877 -0.000255713 0)
(0.995406 0.00092336 0)
(0.995268 0.00214982 0)
(0.995239 0.0045989 0)
(0.998536 0.00516975 0)
(1.00037 0.00497551 0)
(1.00036 0.00261868 0)
(0.999585 0.00279961 0)
(0.999196 0.00268622 0)
(0.998286 0.0028866 0)
(0.997185 0.00479085 0)
(0.996689 0.00673055 0)
(1.0001 -0.00594973 0)
(0.995399 0.00412989 0)
(0.997014 -0.00470034 0)
(0.996132 0.00785135 0)
(1.00407 0.00200659 0)
(1.00542 -0.00276164 0)
(1.0002 -0.00554521 0)
(0.9953 -0.00602158 0)
(0.993054 -0.00022374 0)
(0.995469 0.000870545 0)
(0.995398 0.00207577 0)
(0.995363 0.00455776 0)
(0.99858 0.00491912 0)
(1.00029 0.004912 0)
(1.00029 0.00269596 0)
(0.999616 0.00279204 0)
(0.999225 0.00292267 0)
(0.998425 0.00307595 0)
(0.997448 0.00486428 0)
(0.996975 0.0068563 0)
(1.00012 -0.00580681 0)
(0.995443 0.00399413 0)
(0.997115 -0.00449481 0)
(0.996259 0.00747918 0)
(1.00385 0.00203436 0)
(1.00526 -0.00282296 0)
(1.00013 -0.00519613 0)
(0.995455 -0.00590112 0)
(0.993255 -0.000204544 0)
(0.995545 0.000839019 0)
(0.995539 0.00197976 0)
(0.995481 0.00452232 0)
(0.998611 0.00467827 0)
(1.00021 0.00482498 0)
(1.00021 0.00280265 0)
(0.999643 0.00277759 0)
(0.999256 0.00314241 0)
(0.998551 0.00329717 0)
(0.997712 0.00490301 0)
(0.99726 0.00693865 0)
(1.00013 -0.00565775 0)
(0.995495 0.00384885 0)
(0.997223 -0.00427919 0)
(0.996387 0.00709545 0)
(1.00363 0.00206976 0)
(1.0051 -0.00288656 0)
(1.00006 -0.00484919 0)
(0.995614 -0.00576779 0)
(0.99347 -0.00020276 0)
(0.99563 0.000828335 0)
(0.99569 0.0018669 0)
(0.995596 0.00448641 0)
(0.998636 0.00445643 0)
(1.00013 0.00470945 0)
(1.00012 0.00293619 0)
(0.999673 0.00276981 0)
(0.999299 0.00333155 0)
(0.998668 0.00354665 0)
(0.997973 0.00492905 0)
(0.997548 0.0069681 0)
(1.00015 -0.00550281 0)
(0.995555 0.00369462 0)
(0.997333 -0.00405412 0)
(0.996518 0.00670121 0)
(1.00341 0.00211145 0)
(1.00493 -0.00294922 0)
(0.999996 -0.00450956 0)
(0.995771 -0.00561755 0)
(0.993695 -0.000218944 0)
(0.995718 0.000837679 0)
(0.995849 0.00174101 0)
(0.995712 0.00444446 0)
(0.998657 0.00426152 0)
(1.00007 0.00456352 0)
(1.00003 0.00308941 0)
(0.999705 0.00277782 0)
(0.99936 0.00347858 0)
(0.998778 0.0038108 0)
(0.998227 0.00496934 0)
(0.997841 0.00694831 0)
(1.00016 -0.00534237 0)
(0.995619 0.00353181 0)
(0.997444 -0.00382069 0)
(0.996652 0.00629915 0)
(1.00317 0.00215628 0)
(1.00477 -0.00300947 0)
(0.999932 -0.00418002 0)
(0.995924 -0.00544973 0)
(0.993926 -0.000252421 0)
(0.995806 0.000866264 0)
(0.996013 0.00160596 0)
(0.99583 0.00438851 0)
(0.998672 0.0040992 0)
(1.00002 0.00439121 0)
(0.999943 0.00325134 0)
(0.999736 0.00281261 0)
(0.99944 0.00358093 0)
(0.998888 0.00406673 0)
(0.998469 0.00503802 0)
(0.998138 0.00689108 0)
(1.00018 -0.00517621 0)
(0.995689 0.00336109 0)
(0.997554 -0.0035813 0)
(0.99679 0.00589111 0)
(1.00294 0.00220236 0)
(1.00461 -0.00306667 0)
(0.999872 -0.00386281 0)
(0.996072 -0.00526152 0)
(0.994164 -0.000306235 0)
(0.995893 0.000909963 0)
(0.996181 0.00147011 0)
(0.995953 0.00431345 0)
(0.998682 0.00397012 0)
(0.999991 0.00419978 0)
(0.999865 0.00341308 0)
(0.999765 0.00288432 0)
(0.999539 0.00364588 0)
(0.999004 0.00429359 0)
(0.998695 0.00513265 0)
(0.998435 0.00680654 0)
(1.00019 -0.00500515 0)
(0.995764 0.00318434 0)
(0.997664 -0.0033388 0)
(0.996932 0.00548043 0)
(1.0027 0.00224885 0)
(1.00445 -0.00311634 0)
(0.999816 -0.00356383 0)
(0.996213 -0.00505071 0)
(0.994407 -0.000377216 0)
(0.99598 0.00096346 0)
(0.99635 0.00134012 0)
(0.996081 0.0042173 0)
(0.998685 0.00387711 0)
(0.999974 0.00399494 0)
(0.999799 0.00356075 0)
(0.999787 0.00299393 0)
(0.999652 0.00368241 0)
(0.999129 0.00448126 0)
(0.998906 0.00524809 0)
(0.998729 0.00670681 0)
(1.00021 -0.00482947 0)
(0.995844 0.00300172 0)
(0.997772 -0.00309407 0)
(0.997078 0.00507037 0)
(1.00247 0.00229605 0)
(1.00428 -0.00315613 0)
(0.999767 -0.00328477 0)
(0.996347 -0.00481752 0)
(0.994655 -0.000465914 0)
(0.996068 0.00102732 0)
(0.99652 0.00121789 0)
(0.996217 0.0040959 0)
(0.998681 0.00381919 0)
(0.999969 0.00378859 0)
(0.999751 0.00368346 0)
(0.999802 0.00314219 0)
(0.999774 0.00370206 0)
(0.999268 0.00462013 0)
(0.999102 0.00537487 0)
(0.999013 0.00660818 0)
(1.00022 -0.00464932 0)
(0.995929 0.00281485 0)
(0.997878 -0.0028505 0)
(0.997229 0.00466324 0)
(1.00223 0.00233992 0)
(1.00412 -0.00318568 0)
(0.999724 -0.0030251 0)
(0.996472 -0.00456086 0)
(0.994908 -0.000570704 0)
(0.996158 0.00109581 0)
(0.996687 0.00110779 0)
(0.996363 0.00395016 0)
(0.998672 0.00379114 0)
(0.999974 0.00359288 0)
(0.999724 0.00377048 0)
(0.999808 0.00332723 0)
(0.999898 0.00372463 0)
(0.999423 0.00470261 0)
(0.999286 0.00549644 0)
(0.999281 0.00653001 0)
(1.00024 -0.00446531 0)
(0.996019 0.00262539 0)
(0.997981 -0.00261096 0)
(0.997384 0.00425897 0)
(1.00199 0.00237986 0)
(1.00395 -0.00320143 0)
(0.999689 -0.0027881 0)
(0.996588 -0.00428106 0)
(0.995165 -0.000689717 0)
(0.996251 0.00116742 0)
(0.99685 0.00101483 0)
(0.996521 0.00378152 0)
(0.998658 0.00379287 0)
(0.999985 0.00342444 0)
(0.999722 0.00380613 0)
(0.999809 0.00352871 0)
(1.00001 0.00376912 0)
(0.999593 0.00473414 0)
(0.999466 0.00559228 0)
(0.999528 0.00648297 0)
(1.00025 -0.00427817 0)
(0.996114 0.0024352 0)
(0.998081 -0.00237698 0)
(0.997541 0.00386042 0)
(1.00176 0.00241502 0)
(1.00379 -0.00320204 0)
(0.999661 -0.00257916 0)
(0.996692 -0.00397665 0)
(0.995425 -0.000820537 0)
(0.99635 0.00123992 0)
(0.997006 0.00094801 0)
(0.996693 0.00358309 0)
(0.998644 0.00381658 0)
(0.999995 0.00330172 0)
(0.999747 0.00379145 0)
(0.999812 0.00371897 0)
(1.00012 0.00384502 0)
(0.999773 0.00473447 0)
(0.99965 0.00564637 0)
(0.999754 0.00646024 0)
(1.00027 -0.00408842 0)
(0.996215 0.00224558 0)
(0.998177 -0.00214897 0)
(0.997701 0.00347062 0)
(1.00152 0.00244422 0)
(1.00362 -0.00318822 0)
(0.999641 -0.00239931 0)
(0.996783 -0.00365314 0)
(0.995685 -0.000959389 0)
(0.996455 0.00129969 0)
(0.997152 0.000918395 0)
(0.996879 0.00335313 0)
(0.998636 0.00384679 0)
(1 0.00323055 0)
(0.999794 0.00374013 0)
(0.999825 0.00387374 0)
(1.00021 0.00394598 0)
(0.999955 0.00472612 0)
(0.99984 0.00565431 0)
(0.999964 0.00643992 0)
(1.00028 -0.00389643 0)
(0.996321 0.00205727 0)
(0.998269 -0.00192732 0)
(0.997863 0.00308818 0)
(1.00129 0.0024702 0)
(1.00344 -0.00315903 0)
(0.999632 -0.00224846 0)
(0.996862 -0.00331011 0)
(0.995944 -0.00109766 0)
(0.996571 0.00133602 0)
(0.997286 0.00093947 0)
(0.997076 0.0031019 0)
(0.99864 0.00386485 0)
(1 0.00321242 0)
(0.999858 0.00366987 0)
(0.999853 0.00398155 0)
(1.00029 0.00405468 0)
(1.00013 0.00472434 0)
(1.00004 0.00562832 0)
(1.00016 0.00640449 0)
(1.00029 -0.0037023 0)
(0.996432 0.00187039 0)
(0.998357 -0.00171198 0)
(0.998026 0.00271271 0)
(1.00107 0.00249033 0)
(1.00327 -0.00310738 0)
(0.999635 -0.0021294 0)
(0.996927 -0.00294601 0)
(0.996196 -0.0012277 0)
(0.9967 0.00133622 0)
(0.997406 0.00101715 0)
(0.997281 0.00284997 0)
(0.998662 0.00385096 0)
(0.999991 0.00324675 0)
(0.999933 0.00360043 0)
(0.999898 0.00404264 0)
(1.00036 0.00415571 0)
(1.0003 0.00473361 0)
(1.00024 0.00558558 0)
(1.00036 0.00634771 0)
(1.0003 -0.0035073 0)
(0.996548 0.00168567 0)
(0.99844 -0.00150094 0)
(0.99819 0.0023409 0)
(1.00084 0.00250479 0)
(1.00308 -0.00303013 0)
(0.999652 -0.00204282 0)
(0.99698 -0.00256714 0)
(0.996439 -0.00133632 0)
(0.996848 0.00129636 0)
(0.997513 0.00114164 0)
(0.997485 0.00261951 0)
(0.998707 0.00378667 0)
(0.999976 0.00331643 0)
(1.00001 0.00355028 0)
(0.99996 0.00406228 0)
(1.00044 0.00423728 0)
(1.00046 0.00474927 0)
(1.00043 0.00553328 0)
(1.00055 0.00626551 0)
(1.00031 -0.00331125 0)
(0.996667 0.00150163 0)
(0.998516 -0.00129413 0)
(0.998355 0.00197551 0)
(1.00063 0.00250713 0)
(1.00289 -0.00292391 0)
(0.999683 -0.00199002 0)
(0.997022 -0.00217964 0)
(0.996665 -0.00141513 0)
(0.997016 0.00120674 0)
(0.997611 0.00129563 0)
(0.997681 0.00243391 0)
(0.998776 0.00366719 0)
(0.999964 0.00338897 0)
(1.00008 0.00352844 0)
(1.00004 0.00405286 0)
(1.00051 0.00429137 0)
(1.00061 0.00476739 0)
(1.00062 0.00548327 0)
(1.00074 0.00616435 0)
(1.00032 -0.00311338 0)
(0.99679 0.00131596 0)
(0.998587 -0.00108963 0)
(0.998521 0.00161442 0)
(1.00042 0.00249793 0)
(1.00269 -0.00278712 0)
(0.999727 -0.00197386 0)
(0.997057 -0.00179459 0)
(0.996869 -0.00144775 0)
(0.997206 0.00105745 0)
(0.997706 0.00145782 0)
(0.997861 0.00231143 0)
(0.998866 0.00350848 0)
(0.99996 0.00344028 0)
(1.00014 0.00353565 0)
(1.00012 0.00403281 0)
(1.0006 0.00431463 0)
(1.00075 0.00477433 0)
(1.0008 0.00544351 0)
(1.00092 0.00605779 0)
(1.00032 -0.00291561 0)
(0.996918 0.00113002 0)
(0.998651 -0.000882586 0)
(0.998686 0.00125453 0)
(1.00023 0.00247835 0)
(1.00248 -0.00261371 0)
(0.999786 -0.00199262 0)
(0.997091 -0.00142629 0)
(0.997045 -0.00141162 0)
(0.997414 0.000863451 0)
(0.997809 0.001603 0)
(0.998019 0.00225816 0)
(0.99897 0.00333287 0)
(0.999972 0.00345391 0)
(1.0002 0.00355904 0)
(1.0002 0.00401386 0)
(1.00069 0.00431478 0)
(1.0009 0.00475646 0)
(1.00098 0.00540558 0)
(1.00109 0.00596329 0)
(1.00033 -0.00271731 0)
(0.99705 0.000941891 0)
(0.998706 -0.000672702 0)
(0.998849 0.00090532 0)
(1.00005 0.00243422 0)
(1.00226 -0.00239346 0)
(0.999856 -0.00203747 0)
(0.997129 -0.00108513 0)
(0.997189 -0.0013061 0)
(0.997637 0.000650092 0)
(0.997928 0.00170557 0)
(0.998156 0.00226797 0)
(0.999078 0.00316771 0)
(1 0.00342952 0)
(1.00026 0.00358473 0)
(1.00028 0.0039976 0)
(1.00077 0.00430148 0)
(1.00104 0.00471692 0)
(1.00115 0.00535165 0)
(1.00125 0.00588343 0)
(1.00033 -0.00251885 0)
(0.997187 0.000753316 0)
(0.998753 -0.000465378 0)
(0.999008 0.000576412 0)
(0.99989 0.00235351 0)
(1.00202 -0.0021327 0)
(0.999934 -0.00209063 0)
(0.997177 -0.00078759 0)
(0.997298 -0.00112448 0)
(0.997864 0.000445377 0)
(0.99807 0.00174306 0)
(0.998275 0.00231481 0)
(0.999181 0.00303014 0)
(1.00005 0.0033731 0)
(1.00032 0.00360425 0)
(1.00036 0.00398644 0)
(1.00086 0.00427828 0)
(1.00118 0.00466577 0)
(1.00132 0.00527583 0)
(1.00141 0.00579993 0)
(1.00033 -0.00232129 0)
(0.997328 0.000565165 0)
(0.998793 -0.000263618 0)
(0.99916 0.000276196 0)
(0.999754 0.0022302 0)
(1.00178 -0.00183219 0)
(1.00002 -0.00213878 0)
(0.997244 -0.000552691 0)
(0.997375 -0.000884674 0)
(0.998083 0.000271732 0)
(0.998237 0.0017082 0)
(0.998385 0.00237071 0)
(0.999274 0.00293075 0)
(1.00011 0.00329376 0)
(1.00039 0.00360694 0)
(1.00043 0.00398295 0)
(1.00094 0.00424625 0)
(1.00132 0.00460171 0)
(1.00149 0.00518386 0)
(1.00156 0.00570019 0)
(1.00033 -0.00212552 0)
(0.997475 0.000381512 0)
(0.998826 -7.66828e-05 0)
(0.999302 1.74014e-05 0)
(0.999645 0.00205694 0)
(1.00152 -0.00150325 0)
(1.00009 -0.0021624 0)
(0.997333 -0.000386881 0)
(0.997424 -0.000606179 0)
(0.998284 0.000150511 0)
(0.998429 0.00161488 0)
(0.998495 0.00241257 0)
(0.999353 0.0028683 0)
(1.00018 0.00320366 0)
(1.00046 0.00358335 0)
(1.0005 0.00398581 0)
(1.00101 0.00421808 0)
(1.00145 0.0045222 0)
(1.00167 0.00507796 0)
(1.00171 0.00558844 0)
(1.00033 -0.00193347 0)
(0.997627 0.000206374 0)
(0.998855 9.31466e-05 0)
(0.999431 -0.000196446 0)
(0.999563 0.00182785 0)
(1.00126 -0.0011657 0)
(1.00016 -0.00213824 0)
(0.997446 -0.000291813 0)
(0.997455 -0.000307884 0)
(0.998457 0.000102634 0)
(0.998639 0.00149154 0)
(0.998614 0.00242413 0)
(0.99942 0.00282622 0)
(1.00025 0.00311112 0)
(1.00055 0.00353021 0)
(1.00057 0.00398158 0)
(1.00106 0.00420736 0)
(1.00156 0.00443657 0)
(1.00184 0.00495107 0)
(1.00186 0.00547219 0)
(1.00033 -0.00174534 0)
(0.997784 4.03055e-05 0)
(0.998879 0.000239584 0)
(0.999543 -0.000353559 0)
(0.999512 0.0015568 0)
(1.00101 -0.000837782 0)
(1.00021 -0.00205532 0)
(0.997584 -0.000253525 0)
(0.997478 -1.69974e-05 0)
(0.998596 0.000130361 0)
(0.998857 0.00136061 0)
(0.998746 0.00240572 0)
(0.999476 0.00279942 0)
(1.00032 0.00302753 0)
(1.00066 0.00345778 0)
(1.00065 0.00395574 0)
(1.0011 0.00420825 0)
(1.00166 0.00436379 0)
(1.00201 0.00479687 0)
(1.00201 0.00533927 0)
(1.00032 -0.00156327 0)
(0.997943 -0.000112791 0)
(0.998904 0.000354203 0)
(0.999636 -0.000440048 0)
(0.999487 0.00126097 0)
(1.00077 -0.000549728 0)
(1.00025 -0.00190443 0)
(0.997742 -0.000251175 0)
(0.997504 0.00023922 0)
(0.998702 0.000215103 0)
(0.999075 0.00124215 0)
(0.998894 0.00235995 0)
(0.999526 0.00278338 0)
(1.00038 0.00295096 0)
(1.00077 0.00336853 0)
(1.00074 0.00390333 0)
(1.00114 0.00420471 0)
(1.00172 0.00432232 0)
(1.00216 0.00463751 0)
(1.00217 0.00517191 0)
(1.00031 -0.00138868 0)
(0.998105 -0.000249286 0)
(0.998933 0.000435471 0)
(0.999708 -0.000461543 0)
(0.999486 0.000956425 0)
(1.00056 -0.000322987 0)
(1.00026 -0.00169733 0)
(0.997912 -0.000258587 0)
(0.997539 0.000432572 0)
(0.998777 0.000329658 0)
(0.999284 0.00114973 0)
(0.999058 0.00229067 0)
(0.999575 0.00277447 0)
(1.00043 0.00288669 0)
(1.00088 0.00326335 0)
(1.00085 0.00382411 0)
(1.00118 0.00417847 0)
(1.00175 0.00429985 0)
(1.00229 0.00450151 0)
(1.00234 0.0049637 0)
(1.00031 -0.00122343 0)
(0.998268 -0.000366458 0)
(0.998969 0.000480559 0)
(0.999759 -0.000434873 0)
(0.999501 0.000671019 0)
(1.00038 -0.000169281 0)
(1.00026 -0.00145879 0)
(0.998086 -0.000249285 0)
(0.997587 0.000577402 0)
(0.998829 0.000458659 0)
(0.99948 0.0010832 0)
(0.999238 0.00220525 0)
(0.999626 0.00276301 0)
(1.00046 0.00284321 0)
(1.001 0.00314963 0)
(1.00098 0.00372205 0)
(1.00123 0.00412889 0)
(1.00177 0.00427829 0)
(1.00238 0.00440911 0)
(1.00251 0.00474587 0)
(1.0003 -0.00106956 0)
(0.998429 -0.000460737 0)
(0.999013 0.000492791 0)
(0.999793 -0.000377685 0)
(0.999526 0.000427364 0)
(1.00022 -8.13236e-05 0)
(1.00025 -0.00121263 0)
(0.998261 -0.000206161 0)
(0.997648 0.000698644 0)
(0.998861 0.000587817 0)
(0.999659 0.00103757 0)
(0.999431 0.00211259 0)
(0.999687 0.00274387 0)
(1.00048 0.00281934 0)
(1.0011 0.00303535 0)
(1.00112 0.00359163 0)
(1.00131 0.00405289 0)
(1.00178 0.00423919 0)
(1.00242 0.00434704 0)
(1.00264 0.00456921 0)
(1.00029 -0.000928419 0)
(0.998587 -0.000529662 0)
(0.999068 0.000470127 0)
(0.999812 -0.000296783 0)
(0.999555 0.00023532 0)
(1.00011 -4.39565e-05 0)
(1.00024 -0.000984031 0)
(0.998433 -0.00012821 0)
(0.997719 0.000807639 0)
(0.998878 0.000711407 0)
(0.99982 0.00100483 0)
(0.999637 0.00200995 0)
(0.999763 0.00271787 0)
(1.00048 0.00281556 0)
(1.00119 0.00294141 0)
(1.00128 0.00343889 0)
(1.0014 0.00394633 0)
(1.00181 0.00417525 0)
(1.00244 0.00427439 0)
(1.00273 0.00444228 0)
(1.00028 -0.000802396 0)
(0.998738 -0.000569981 0)
(0.999134 0.000415158 0)
(0.999823 -0.00020769 0)
(0.999582 0.000105604 0)
(1.00002 -4.42092e-05 0)
(1.00024 -0.000798576 0)
(0.998607 -2.44536e-05 0)
(0.997799 0.000922184 0)
(0.99888 0.000841152 0)
(0.999959 0.000990082 0)
(0.999855 0.00189764 0)
(0.999861 0.00267436 0)
(1.00048 0.00282195 0)
(1.00125 0.00287391 0)
(1.00143 0.00328109 0)
(1.00152 0.00381092 0)
(1.00184 0.00410158 0)
(1.00246 0.00418315 0)
(1.00277 0.00433224 0)
(1.00027 -0.000690495 0)
(0.998882 -0.000585411 0)
(0.99921 0.000340121 0)
(0.99983 -0.000123528 0)
(0.999605 3.16436e-05 0)
(0.999951 -5.64713e-05 0)
(1.00025 -0.000662347 0)
(0.998787 8.01446e-05 0)
(0.997889 0.00104624 0)
(0.998868 0.000977898 0)
(1.00007 0.000995208 0)
(1.00008 0.00178783 0)
(0.999986 0.00261255 0)
(1.00048 0.00283562 0)
(1.00128 0.00283064 0)
(1.00157 0.00312971 0)
(1.00167 0.0036388 0)
(1.00189 0.00400806 0)
(1.00246 0.00409217 0)
(1.0028 0.00420324 0)
(1.00026 -0.000594525 0)
(0.999014 -0.00057375 0)
(0.999293 0.000251586 0)
(0.999839 -5.36069e-05 0)
(0.999622 4.08403e-06 0)
(0.999898 -6.14069e-05 0)
(1.00028 -0.000562616 0)
(0.998979 0.000157084 0)
(0.99799 0.00117271 0)
(0.998842 0.00113448 0)
(1.00016 0.00101972 0)
(1.0003 0.00167384 0)
(1.00014 0.00252802 0)
(1.00048 0.00284895 0)
(1.00129 0.00282121 0)
(1.00169 0.00300738 0)
(1.00184 0.003444 0)
(1.00197 0.00387049 0)
(1.00246 0.00400971 0)
(1.00283 0.00405689 0)
(1.00025 -0.000513688 0)
(0.999134 -0.00053834 0)
(0.999381 0.000158821 0)
(0.999853 -8.50629e-06 0)
(0.999636 1.62485e-05 0)
(0.999853 -4.57399e-05 0)
(1.00032 -0.000488364 0)
(0.999187 0.000191699 0)
(0.998113 0.00128187 0)
(0.998803 0.00131686 0)
(1.00021 0.00108491 0)
(1.00052 0.0015648 0)
(1.00034 0.00241284 0)
(1.00052 0.00283685 0)
(1.00128 0.00283303 0)
(1.00177 0.00292701 0)
(1.00201 0.0032611 0)
(1.00209 0.00368507 0)
(1.00247 0.00391573 0)
(1.00284 0.00392161 0)
(1.00024 -0.000445517 0)
(0.99924 -0.000489604 0)
(0.999467 7.4895e-05 0)
(0.999876 8.29252e-06 0)
(0.999651 5.19696e-05 0)
(0.999811 9.66636e-07 0)
(1.00035 -0.000422397 0)
(0.999411 0.000182497 0)
(0.998267 0.00135622 0)
(0.998764 0.00150175 0)
(1.00021 0.00118909 0)
(1.00072 0.00148697 0)
(1.00055 0.00227593 0)
(1.00058 0.00279559 0)
(1.00126 0.00284291 0)
(1.00182 0.00287913 0)
(1.00215 0.00311747 0)
(1.00224 0.00347702 0)
(1.0025 0.00378117 0)
(1.00282 0.00380973 0)
(1.00023 -0.000388859 0)
(0.999333 -0.000431827 0)
(0.999549 6.54684e-06 0)
(0.999907 3.07088e-08 0)
(0.99967 9.54276e-05 0)
(0.99977 7.17774e-05 0)
(1.00038 -0.000344459 0)
(0.999646 0.000144696 0)
(0.998459 0.00138462 0)
(0.998732 0.00168749 0)
(1.00018 0.00132585 0)
(1.00088 0.00144476 0)
(1.00079 0.00212902 0)
(1.00069 0.00272492 0)
(1.00125 0.00284338 0)
(1.00184 0.00284155 0)
(1.00225 0.00301089 0)
(1.00239 0.00328496 0)
(1.00258 0.00360039 0)
(1.0028 0.00370524 0)
(1.00022 -0.000340791 0)
(0.999413 -0.00037227 0)
(0.999623 -4.06711e-05 0)
(0.999946 -3.06001e-05 0)
(0.999697 0.000134072 0)
(0.99973 0.000162663 0)
(1.00039 -0.000244407 0)
(0.999881 9.5167e-05 0)
(0.998696 0.00133886 0)
(0.998724 0.00185134 0)
(1.00011 0.0015028 0)
(1.00099 0.00144177 0)
(1.00102 0.00198626 0)
(1.00083 0.0026166 0)
(1.00125 0.00283419 0)
(1.00184 0.00281178 0)
(1.00232 0.00291913 0)
(1.00252 0.00312804 0)
(1.00269 0.00339429 0)
(1.00279 0.00357576 0)
(1.00021 -0.000298408 0)
(0.999483 -0.00031783 0)
(0.999684 -6.24476e-05 0)
(0.999989 -7.08827e-05 0)
(0.999737 0.000153955 0)
(0.999696 0.000264947 0)
(1.00038 -0.000116273 0)
(1.0001 6.00097e-05 0)
(0.998976 0.00122894 0)
(0.998762 0.00195408 0)
(1.00002 0.00170035 0)
(1.00104 0.00149313 0)
(1.00124 0.00186706 0)
(1.00102 0.00247049 0)
(1.00128 0.00279268 0)
(1.00182 0.00279565 0)
(1.00236 0.00283445 0)
(1.00262 0.00299519 0)
(1.00281 0.00319457 0)
(1.00283 0.00340164 0)
(1.0002 -0.000259639 0)
(0.999545 -0.000270845 0)
(0.999734 -6.11985e-05 0)
(1.00003 -0.000105045 0)
(0.999792 0.000147491 0)
(0.999673 0.000362812 0)
(1.00035 3.21137e-05 0)
(1.00029 5.25088e-05 0)
(0.999285 0.00108808 0)
(0.99886 0.00198391 0)
(0.999918 0.00188128 0)
(1.00103 0.00159438 0)
(1.00142 0.00179202 0)
(1.00123 0.00231253 0)
(1.00136 0.00269894 0)
(1.0018 0.00277178 0)
(1.00238 0.00276563 0)
(1.00268 0.00287127 0)
(1.00291 0.00302273 0)
(1.00289 0.00320018 0)
(1.00019 -0.000223412 0)
(0.999599 -0.000231946 0)
(0.999773 -4.60522e-05 0)
(1.00007 -0.000123787 0)
(0.999861 0.000127327 0)
(0.999667 0.00043826 0)
(1.0003 0.000195189 0)
(1.00043 8.72059e-05 0)
(0.999607 0.000938349 0)
(0.99902 0.00193727 0)
(0.999838 0.00202966 0)
(1.00098 0.00171763 0)
(1.00154 0.00176288 0)
(1.00143 0.0021761 0)
(1.00147 0.00257055 0)
(1.0018 0.00271493 0)
(1.00236 0.00270914 0)
(1.00273 0.00275404 0)
(1.00298 0.00287241 0)
(1.00297 0.00300301 0)
(1.00018 -0.000188469 0)
(0.999649 -0.000202105 0)
(0.999804 -2.07697e-05 0)
(1.0001 -0.000123284 0)
(0.999938 0.000101488 0)
(0.999684 0.00048352 0)
(1.00024 0.000359096 0)
(1.00052 0.000178487 0)
(0.999916 0.000808634 0)
(0.99924 0.00181634 0)
(0.999797 0.00212451 0)
(1.00089 0.00184894 0)
(1.00161 0.00176739 0)
(1.00161 0.00206565 0)
(1.00161 0.00243806 0)
(1.00182 0.00262534 0)
(1.00234 0.0026497 0)
(1.00274 0.00264924 0)
(1.00303 0.00272776 0)
(1.00304 0.00282407 0)
(1.00017 -0.000153519 0)
(0.999694 -0.000179881 0)
(0.999829 9.99972e-06 0)
(1.00012 -0.000101242 0)
(1.00002 7.79828e-05 0)
(0.999725 0.000505616 0)
(1.00019 0.000497818 0)
(1.00057 0.000304413 0)
(1.00019 0.000726497 0)
(0.999505 0.00165192 0)
(0.999814 0.00213551 0)
(1.00078 0.00197348 0)
(1.00162 0.00180626 0)
(1.00176 0.00197566 0)
(1.00176 0.0023115 0)
(1.00188 0.00252061 0)
(1.00232 0.00257561 0)
(1.00272 0.00256023 0)
(1.00306 0.00258807 0)
(1.00309 0.00266029 0)