/*--------------------------------*- C++ -*----------------------------------*\
| =========                 |                                                 |
| \\      /  F ield         | OpenFOAM: The Open Source CFD Toolbox           |
|  \\    /   O peration     | Version:  2106                                  |
|   \\  /    A nd           | Website:  www.openfoam.com                      |
|    \\/     M anipulation  |                                                 |
\*---------------------------------------------------------------------------*/
FoamFile
{
    version     2.0;
    format      ascii;
    arch        "LSB;label=32;scalar=64";
    class       volScalarField;
    location    "0.945";
    object      p;
}
// * * * * * * * * * * * * * * * * * * * * * * * * * * * * * * * * * * * * * //

dimensions      [0 2 -2 0 0 0 0];

internalField   nonuniform List<scalar> 
9600
(
-7.61845e-11
0.00321883
0.00320343
0.00404284
0.00224723
0.00254401
0.00341706
0.00371394
0.00357642
0.00390264
0.00337812
0.00373123
0.00382366
0.00496696
0.00506681
0.00567525
0.00654033
0.00838248
0.0100138
0.0158158
8.29613e-07
0.00322285
0.00320058
0.00403794
0.00225275
0.00255874
0.00340849
0.00370308
0.00357569
0.00389116
0.00339443
0.00373379
0.00382725
0.00495749
0.00507701
0.00567171
0.0065529
0.0083503
0.0100475
0.0152234
3.06135e-06
0.00322936
0.00319618
0.00403323
0.00226123
0.00256903
0.00339644
0.00368592
0.00357302
0.00388319
0.00341058
0.00374114
0.00382985
0.00494263
0.00509109
0.00566596
0.0065673
0.00830414
0.0100441
0.014648
7.34517e-06
0.00323726
0.00319087
0.0040298
0.00227077
0.00257661
0.00339081
0.00366536
0.00356928
0.00388151
0.00342666
0.00375238
0.0038301
0.0049241
0.00510688
0.00565745
0.0065828
0.00824808
0.0100062
0.014107
1.45992e-05
0.00324595
0.00318422
0.00402652
0.00228119
0.00258267
0.00338712
0.00364222
0.00356492
0.0038831
0.00344312
0.0037636
0.00382824
0.00490305
0.00512467
0.00564583
0.00659855
0.00818592
0.00994801
0.0136012
2.53387e-05
0.00325428
0.00317581
0.0040229
0.00229208
0.00258807
0.00338576
0.00361768
0.00356037
0.0038856
0.00345989
0.00377253
0.0038253
0.0048805
0.00514393
0.00563123
0.00661369
0.00811923
0.00987026
0.0131256
3.9456e-05
0.00326144
0.00316565
0.00401878
0.00230292
0.00259351
0.00338688
0.00359335
0.00355623
0.00388717
0.00347686
0.00377897
0.0038222
0.00485665
0.00516399
0.00561458
0.00662624
0.0080496
0.00977041
0.0126772
5.64418e-05
0.00326732
0.00315404
0.00401406
0.00231355
0.00259942
0.0033906
0.00357046
0.00355282
0.00388672
0.00349416
0.00378316
0.00381945
0.00483158
0.00518447
0.00559659
0.00663363
0.00797853
0.00964739
0.0122521
7.56709e-05
0.00327223
0.00314137
0.00400877
0.00232418
0.00260593
0.00339665
0.00354936
0.00355023
0.00388398
0.00351196
0.00378527
0.00381741
0.00480552
0.00520463
0.00557786
0.00663398
0.00790681
0.00950035
0.0118454
9.65926e-05
0.00327657
0.0031281
0.00400302
0.00233517
0.00261293
0.00340463
0.00352976
0.00354843
0.00387914
0.00353039
0.0037854
0.00381619
0.00477877
0.00522349
0.00555924
0.00662586
0.00783439
0.00932972
0.0114521
0.000118821
0.00328067
0.00311465
0.00399677
0.00234674
0.00262018
0.00341413
0.00351109
0.00354737
0.00387256
0.0035496
0.00378363
0.00381555
0.00475186
0.00524005
0.0055414
0.00660789
0.00776062
0.00913883
0.0110678
0.000142137
0.00328473
0.00310133
0.00398984
0.00235902
0.00262748
0.00342484
0.00349273
0.00354699
0.00386458
0.00356964
0.00378007
0.0038151
0.00472552
0.00525314
0.00552472
0.00657922
0.00768428
0.00893262
0.0106884
0.000166448
0.0032888
0.00308837
0.00398207
0.0023721
0.00263467
0.00343654
0.00347417
0.00354725
0.00385555
0.00359041
0.00377494
0.00381432
0.00470056
0.00526173
0.00550921
0.00653968
0.00760348
0.00871603
0.0103108
0.000191738
0.00329285
0.00307594
0.0039733
0.00238606
0.00264161
0.00344913
0.00345504
0.00354812
0.0038457
0.00361169
0.00376859
0.00381243
0.00467777
0.00526519
0.00549449
0.00648954
0.00751544
0.00849431
0.00993391
0.000218039
0.00329677
0.00306416
0.00396339
0.00240095
0.00264815
0.00346258
0.00343515
0.00354955
0.00383517
0.00363313
0.00376155
0.00380859
0.00465765
0.00526322
0.00547976
0.00642961
0.00741695
0.00827108
0.0095586
0.000245405
0.00330045
0.00305315
0.00395226
0.00241685
0.00265416
0.00347694
0.0034144
0.00355147
0.00382416
0.00365425
0.00375442
0.00380201
0.00464049
0.0052557
0.00546348
0.00636146
0.0073054
0.00804646
0.00918659
0.00027391
0.00330372
0.00304303
0.00393985
0.00243382
0.00265946
0.00349227
0.00339279
0.00355378
0.00381289
0.00367441
0.00374788
0.00379204
0.00462634
0.00524286
0.00544329
0.00628699
0.00717991
0.00782011
0.00881993
0.000303636
0.00330642
0.00303394
0.00392607
0.00245194
0.00266391
0.00350861
0.00337036
0.00355628
0.00380175
0.00369281
0.00374267
0.00377826
0.00461467
0.00522567
0.00541646
0.00620734
0.0070411
0.00759128
0.00846059
0.000334678
0.00330837
0.00302598
0.00391085
0.00247124
0.00266734
0.003526
0.00334728
0.00355871
0.00379119
0.00370862
0.0037393
0.00376058
0.00460438
0.00520569
0.00538055
0.00612251
0.0068911
0.00735812
0.00811002
0.000367132
0.00330937
0.00301928
0.00389413
0.00249178
0.00266963
0.00354443
0.00332376
0.00356069
0.00378168
0.00372111
0.00373807
0.00373923
0.00459397
0.00518453
0.00533384
0.00603125
0.00673307
0.00711938
0.00776922
0.000401106
0.00330923
0.00301395
0.00387582
0.00251363
0.00267068
0.00356379
0.00330011
0.00356174
0.0037738
0.00372974
0.00373903
0.00371477
0.00458158
0.00516343
0.00527585
0.00593192
0.00657018
0.00687474
0.00743776
0.00043671
0.00330775
0.0030101
0.00385586
0.0025368
0.00267044
0.00358394
0.00327673
0.00356126
0.00376813
0.00373412
0.00374187
0.00368815
0.00456516
0.00514295
0.00520702
0.00582259
0.00640487
0.00662525
0.00711318
0.000474059
0.00330473
0.00300781
0.00383419
0.00256129
0.00266892
0.00360467
0.00325409
0.00355863
0.00376509
0.00373406
0.00374596
0.00366051
0.00454287
0.00512297
0.00512849
0.00570092
0.00621769
0.00637415
0.00679198
0.000513272
0.00329997
0.00300712
0.00381082
0.00258707
0.00266618
0.00362568
0.00323277
0.00355327
0.00376506
0.00372956
0.0037503
0.00363307
0.004513
0.00510275
0.00504241
0.00556559
0.00605299
0.00612599
0.00647143
0.000554467
0.00329329
0.00300806
0.00378578
0.00261407
0.0026623
0.00364665
0.00321333
0.00354462
0.00376831
0.00372089
0.00375366
0.00360708
0.00447391
0.00508084
0.00495188
0.00541499
0.00588779
0.0058861
0.00615188
0.000597753
0.00328452
0.00301061
0.00375913
0.00264218
0.00265739
0.0036672
0.0031964
0.0035321
0.00377487
0.00370861
0.0037548
0.00358369
0.00442463
0.005055
0.00485987
0.00524883
0.00571815
0.00565886
0.00583725
0.000643238
0.00327353
0.00301465
0.00373103
0.00267134
0.00265162
0.00368693
0.00318255
0.00351522
0.0037847
0.00369329
0.00375291
0.00356388
0.00436502
0.00502196
0.00476902
0.00506983
0.0055406
0.0054445
0.00553224
0.000691026
0.00326024
0.00302
0.00370161
0.00270143
0.00264523
0.00370543
0.00317235
0.00349352
0.00379763
0.0036741
0.00374786
0.00354805
0.00429544
0.00497852
0.00468152
0.00488191
0.00535203
0.00524152
0.00524013
0.000741198
0.00324463
0.00302648
0.00367101
0.0027323
0.0026385
0.00372231
0.00316637
0.00346662
0.00381311
0.0036551
0.00375148
0.00353588
0.0042174
0.00492182
0.0045983
0.00468918
0.00515114
0.005048
0.00496318
0.000793815
0.00322672
0.00303383
0.00363943
0.00276386
0.00263163
0.00373706
0.00316536
0.00343413
0.00383014
0.00363639
0.00373412
0.00352666
0.00413344
0.00484902
0.00451885
0.00449664
0.00493742
0.00486158
0.00470376
0.000848912
0.00320664
0.00304178
0.00360703
0.00279603
0.00262485
0.00374908
0.00317005
0.00339588
0.00384749
0.00361915
0.00369961
0.00351881
0.00404707
0.00475881
0.0044413
0.00430941
0.00471112
0.00467836
0.0044647
0.00090648
0.00318461
0.00305003
0.00357391
0.00282875
0.00261838
0.00375774
0.00318105
0.00335215
0.00386333
0.00360547
0.00364808
0.0035086
0.00396228
0.00465235
0.00436256
0.00413147
0.00447449
0.00449258
0.00424765
0.000966485
0.00316088
0.00305835
0.00354004
0.00286199
0.00261271
0.00376228
0.00319894
0.00330355
0.00387483
0.00359769
0.00358062
0.00349131
0.00388202
0.00453297
0.00427844
0.00396478
0.0042329
0.00429837
0.0040505
0.00102886
0.00313573
0.00306652
0.00350529
0.00289566
0.0026085
0.00376182
0.00322419
0.00325106
0.00387854
0.00359732
0.00350219
0.00346237
0.00380793
0.0044054
0.00418448
0.00380891
0.00399349
0.00409298
0.00386688
0.00109351
0.00310947
0.00307443
0.00346955
0.00292942
0.00260648
0.00375553
0.00325685
0.00319638
0.00387085
0.00360415
0.00341761
0.00341791
0.00373979
0.00427476
0.00407802
0.00366128
0.00376228
0.00387872
0.00368873
0.00116035
0.00308236
0.00308213
0.00343315
0.00296272
0.00260765
0.00374234
0.00329642
0.0031421
0.00384869
0.003619
0.00333247
0.00335622
0.00367498
0.00414567
0.00395974
0.00351765
0.00354219
0.00366126
0.00351058
0.00122928
0.00305457
0.00308984
0.0033949
0.00299475
0.00261335
0.00372131
0.00334161
0.00309139
0.00381013
0.00363472
0.00325148
0.00327732
0.00360936
0.00402164
0.00383203
0.00337285
0.0033324
0.00344611
0.00333192
0.00130026
0.00302616
0.00309794
0.00335547
0.00302409
0.00262507
0.00369233
0.00338962
0.00304744
0.00375465
0.00364658
0.00317848
0.00318301
0.00353821
0.00390431
0.00369877
0.00322361
0.00313022
0.00323645
0.00315548
0.00137325
0.00299715
0.00310658
0.00331545
0.00304884
0.00264368
0.00365573
0.0034369
0.00301292
0.0036834
0.00365126
0.00311624
0.00307728
0.0034575
0.00379357
0.0035641
0.00306914
0.00293221
0.003033
0.00298466
0.00144821
0.00296763
0.00311576
0.00327592
0.00306705
0.00266912
0.00361292
0.00347962
0.00298936
0.00359982
0.00364462
0.00306482
0.00296537
0.00336464
0.00368797
0.00343202
0.0029103
0.00273487
0.00283425
0.0028221
0.00152502
0.00293763
0.00312542
0.00323843
0.00307684
0.00270024
0.00356665
0.00351412
0.00297657
0.00350912
0.00362427
0.00302364
0.00285145
0.00325811
0.00358478
0.00330572
0.00274968
0.00253592
0.00263677
0.00266797
0.00160356
0.00290728
0.00313513
0.00320523
0.00307684
0.00273416
0.0035208
0.00353859
0.0029727
0.00341585
0.00358956
0.00299005
0.00273824
0.00313712
0.00348033
0.00318839
0.00259174
0.00233496
0.00243622
0.00251814
0.00168362
0.00287701
0.00314418
0.00317844
0.00306639
0.00276692
0.00347917
0.00355268
0.00297446
0.00332317
0.00354113
0.00295776
0.00262796
0.00300226
0.0033707
0.00308242
0.0024424
0.00213355
0.00222972
0.00236491
0.00176495
0.00284743
0.00315143
0.00315948
0.00304614
0.00279407
0.00344312
0.00355803
0.00297855
0.00323276
0.00348084
0.00292731
0.00252236
0.00285543
0.00325175
0.00298613
0.00230695
0.00193573
0.00201809
0.00220207
0.00184724
0.00281924
0.00315531
0.00314916
0.00301922
0.00281121
0.00341429
0.00355794
0.00298292
0.00314477
0.00341022
0.00289733
0.00242551
0.0026997
0.00311933
0.00289422
0.00218947
0.00174694
0.001804
0.00202886
0.0019302
0.00279324
0.00315424
0.00314766
0.00299
0.00281487
0.00339023
0.00355565
0.00298716
0.00305843
0.00332979
0.00286709
0.00233869
0.00253852
0.00297065
0.0028011
0.00209087
0.00157328
0.00158989
0.00184829
0.00201352
0.00277017
0.00314695
0.00315403
0.0029631
0.00280325
0.00336154
0.00355329
0.00299328
0.00297335
0.00323899
0.00283547
0.00226483
0.00237609
0.0028045
0.0026999
0.00200767
0.00142103
0.00137879
0.00166209
0.00209674
0.00275108
0.00313279
0.00316608
0.00294305
0.00277662
0.00332056
0.00355101
0.00300468
0.00289045
0.00313705
0.00279987
0.00220507
0.00221798
0.00262308
0.00258406
0.00193402
0.00129474
0.00117717
0.00146905
0.00217932
0.00273674
0.0031117
0.00318073
0.00293315
0.00273798
0.00326322
0.00354674
0.00302418
0.00281262
0.00302368
0.00275593
0.0021583
0.00207205
0.00243252
0.00244992
0.00186102
0.00119409
0.000994759
0.00126939
0.00226055
0.00272805
0.0030841
0.00319386
0.00293569
0.00269326
0.00318507
0.0035343
0.00305324
0.00274499
0.00290043
0.00269823
0.00212183
0.00194462
0.00223899
0.0022985
0.00178051
0.0011125
0.000839305
0.0010691
0.0023395
0.00272588
0.00305139
0.00320081
0.00295062
0.00265036
0.00308606
0.00350451
0.00309086
0.0026944
0.00277125
0.00262232
0.00209069
0.00183864
0.00205015
0.00213379
0.00168887
0.00104039
0.000712357
0.000879599
0.00241522
0.00273064
0.00301601
0.0031981
0.00297576
0.00261682
0.00296844
0.00344884
0.00313178
0.00266637
0.00264284
0.00252662
0.00205615
0.00175294
0.00187547
0.00196061
0.00158538
0.000970362
0.000609237
0.000712511
0.00248676
0.00274234
0.00298072
0.00318395
0.00300535
0.00259869
0.00284536
0.00336066
0.00316466
0.00266258
0.00252623
0.00241451
0.00200862
0.00168311
0.00172181
0.00178638
0.00147109
0.000899078
0.000522309
0.000573467
0.00255341
0.00276069
0.00294833
0.00315758
0.00303219
0.0025988
0.00272477
0.00323868
0.00317498
0.00268094
0.00243302
0.00229225
0.00194341
0.00161984
0.00158794
0.00161956
0.00134967
0.000825732
0.000444757
0.000459741
0.00261492
0.00278447
0.00292112
0.00311956
0.0030495
0.00261616
0.00261726
0.0030871
0.00315015
0.00271255
0.00236951
0.0021702
0.00186138
0.00155434
0.00147075
0.00146419
0.00122598
0.000750952
0.000373113
0.00036348
0.00267105
0.00281209
0.00290065
0.00307221
0.00305293
0.00264556
0.00253122
0.00291898
0.00308363
0.00274097
0.00233638
0.00206284
0.00176679
0.00148152
0.00136467
0.00132146
0.00110324
0.000675371
0.000306883
0.000277709
0.00272173
0.00284167
0.00288793
0.00301873
0.0030403
0.00267789
0.00247056
0.00275118
0.00297668
0.00274754
0.00232952
0.00198086
0.00166853
0.00140009
0.00126504
0.0011909
0.000983086
0.000599029
0.000246806
0.000199893
0.00276717
0.00287067
0.00288299
0.00296335
0.00301035
0.00270534
0.0024342
0.00259795
0.0028363
0.00271991
0.00233391
0.00192637
0.00157962
0.00131242
0.00116714
0.00107165
0.000867476
0.000521072
0.000192514
0.000130932
0.00280758
0.00289719
0.00288479
0.00291081
0.00296194
0.00272205
0.00241698
0.0024675
0.00267894
0.00265541
0.00233158
0.00189662
0.00150898
0.00122675
0.00106997
0.000961285
0.000759437
0.000441319
0.000141075
7.20746e-05
0.00284341
0.00291996
0.00289064
0.00286386
0.0028998
0.00272173
0.00241947
0.00236373
0.00252173
0.00255758
0.00230925
0.00188066
0.00145749
0.00115138
0.000976824
0.000857767
0.0006613
0.000363274
8.92527e-05
2.20168e-05
0.00287515
0.00293816
0.00289731
0.00282394
0.00283066
0.00270286
0.00241754
0.0022867
0.00237617
0.00243637
0.00226137
0.00186583
0.00142382
0.00108886
0.00089288
0.000761319
0.000572755
0.000292761
3.77875e-05
-2.27638e-05
0.00290288
0.00295157
0.0029019
0.00279129
0.00276405
0.00266663
0.00241074
0.00223178
0.00224933
0.00230617
0.00218993
0.00184232
0.00140184
0.00104051
0.000819875
0.000674948
0.000492935
0.000232988
-7.53728e-06
-6.34261e-05
0.00292639
0.00296028
0.0029027
0.00276449
0.0026991
0.002616
0.00239435
0.00218867
0.00214263
0.00217793
0.00209978
0.00180531
0.00138461
0.00100612
0.00075873
0.000599993
0.000423075
0.00018392
-4.07925e-05
-9.57584e-05
0.00294535
0.00296444
0.0028991
0.00274114
0.0026377
0.00255547
0.00236607
0.00215075
0.00205446
0.00205902
0.00200074
0.00175561
0.00136623
0.000983559
0.000711339
0.000536506
0.000364115
0.000144664
-6.04782e-05
-0.000113387
0.0029594
0.0029641
0.00289084
0.00271898
0.00258098
0.00249001
0.00232629
0.00211337
0.00198025
0.00195171
0.00190078
0.00169674
0.00134485
0.000969681
0.000679419
0.000486829
0.00031714
0.00011516
-6.88547e-05
-0.000114601
0.00296812
0.00295941
0.00287773
0.00269631
0.00252838
0.0024221
0.00227641
0.00207332
0.00191509
0.00185531
0.00180427
0.00163387
0.00132141
0.000963012
0.000663788
0.000454901
0.000285741
9.89204e-05
-6.64439e-05
-0.000100766
0.00297117
0.00295038
0.00285956
0.0026715
0.00247907
0.0023535
0.00221796
0.00202837
0.00185558
0.00176858
0.00171253
0.00157021
0.00129781
0.000964257
0.000665277
0.000444278
0.000273917
0.000101478
-4.78481e-05
-7.06942e-05
0.00296833
0.00293696
0.00283717
0.00264343
0.00243131
0.00228473
0.00215254
0.00197704
0.00179822
0.00168926
0.00162628
0.00150721
0.00127487
0.000974021
0.000685663
0.0004585
0.000286511
0.000128609
-4.37434e-06
-1.76363e-05
0.00295962
0.00291906
0.00281017
0.00261174
0.00238413
0.00221592
0.00208055
0.0019177
0.00173954
0.00161486
0.00154514
0.00144654
0.00125405
0.000992264
0.000726597
0.000502887
0.000332041
0.000189304
7.51104e-05
7.0662e-05
0.0029452
0.00289673
0.00277845
0.00257563
0.00233633
0.00214749
0.00200274
0.0018479
0.00167494
0.00154126
0.00146708
0.00138734
0.00123641
0.0010204
0.000789991
0.000585233
0.000423781
0.000298982
0.000207275
0.000213287
0.00292527
0.00286995
0.00274228
0.00253495
0.00228654
0.00207859
0.00192006
0.00176724
0.00159851
0.00146057
0.00138561
0.00132497
0.00121898
0.00105944
0.000879959
0.000716067
0.000581044
0.000483578
0.000422962
0.000445599
0.0029005
0.00283837
0.00270161
0.00248964
0.00223415
0.00200852
0.00183217
0.00167623
0.00150842
0.0013648
0.00128692
0.0012437
0.00118812
0.00110175
0.000998167
0.000907953
0.000836045
0.00078911
0.000777404
0.0008301
0.0028714
0.00280221
0.00265722
0.00243986
0.00217787
0.00193619
0.00173997
0.00157403
0.00140315
0.00125176
0.00116427
0.00112312
0.00110357
0.00110028
0.0011145
0.00116598
0.00124444
0.00133692
0.0014284
0.00153153
0.00283797
0.00276214
0.00261045
0.00238681
0.00211715
0.00185926
0.00164323
0.00146229
0.00128284
0.00111955
0.00101618
0.000961884
0.000945053
0.000972207
0.00106323
0.00130105
0.00173944
0.00231334
0.0028688
0.00324401
0.00280027
0.00271947
0.00256147
0.0023313
0.00205334
0.00177831
0.00153842
0.00133857
0.0011511
0.000980856
0.000867932
0.000825252
0.000875432
0.001076
0.00144917
0.00198896
0.00261632
0.00319636
0.0036172
0.00379548
0.00276017
0.00267497
0.00251057
0.00227286
0.00198736
0.00169955
0.00142958
0.00119853
0.00100322
0.000843988
0.000781376
0.000835342
0.00102114
0.00140063
0.00192327
0.00248196
0.00301481
0.00347228
0.00379629
0.00390556
0.00271989
0.00263064
0.00245835
0.00221038
0.00191888
0.00162603
0.00134809
0.00109093
0.000855445
0.000684165
0.000671355
0.000890928
0.00130772
0.00185078
0.00243914
0.00298866
0.00346692
0.0038474
0.00408746
0.00411995
0.00268194
0.00258821
0.00240938
0.00215141
0.00184492
0.00153754
0.00127049
0.00107889
0.000958834
0.000907393
0.000933964
0.00104357
0.00122349
0.00152933
0.00200872
0.00261503
0.0032437
0.00379297
0.00416498
0.0042736
0.00265009
0.00254886
0.0023656
0.00210759
0.00179878
0.00148891
0.00119565
0.000936861
0.000754305
0.000703029
0.000839279
0.0011836
0.0016767
0.00221615
0.00276091
0.0032661
0.0036896
0.00400491
0.00418435
0.0041749
0.00262393
0.00251628
0.00232501
0.00205364
0.00172832
0.00141163
0.00113551
0.000926771
0.000816715
0.000821016
0.000952135
0.0012478
0.00167525
0.00215874
0.00265898
0.00314131
0.0035627
0.00388469
0.004073
0.00407389
0.0184681
0.0121333
0.00382426
-0.00221618
-0.00387376
-0.00319104
-0.00225877
-0.00153464
-0.00111733
-0.000950379
-0.000806227
-0.000657908
-0.000627978
-0.000660054
-0.000641073
-0.000612751
-0.000612944
-0.000597797
-0.000589904
-0.000622473
-0.00063449
-0.000595399
-0.000555655
-0.000547578
-0.000550045
-0.000530386
-0.000482987
-0.000433798
-0.000411637
-0.000400739
-0.000375202
-0.000353341
-0.000350219
-0.0003453
-0.000334682
-0.000329682
-0.000334875
-0.000351718
-0.00037285
-0.000389115
-0.000404568
-0.000422402
-0.000434247
-0.000436144
-0.000433923
-0.000433764
-0.000440475
-0.000444525
-0.000444417
-0.000455628
-0.000475995
-0.000487543
-0.000485733
-0.000480992
-0.000468475
-0.000447581
-0.000426729
-0.000413875
-0.000422192
-0.000444605
-0.000466484
-0.000481182
-0.000481703
-0.000473727
-0.000469262
-0.000466211
-0.000465127
-0.0004614
-0.000460154
-0.00045485
-0.000438914
-0.000422945
-0.000400325
-0.000378246
-0.000354022
-0.000318099
-0.000266219
-0.000223547
-0.000183404
-0.000129891
-6.91392e-05
-2.62866e-06
5.80291e-05
0.000126103
0.000191533
0.000255461
0.000324306
0.000405912
0.00049198
0.000575937
0.00065847
0.000747623
0.000840439
0.000937128
0.00103932
0.0011375
0.00122504
0.00132367
0.00135039
0.00136386
0.0176494
0.0119641
0.0039046
-0.0020665
-0.00378166
-0.00314773
-0.00223314
-0.00151704
-0.00110433
-0.000940395
-0.00079796
-0.000650505
-0.00062149
-0.000654573
-0.000636271
-0.000608454
-0.000609186
-0.000594416
-0.000586774
-0.000619708
-0.000632076
-0.000593163
-0.000553537
-0.000545616
-0.000548267
-0.000528773
-0.000481484
-0.000432359
-0.000410278
-0.000399492
-0.000374025
-0.000352202
-0.000349146
-0.000344291
-0.000333711
-0.000328746
-0.000333971
-0.00035085
-0.000372028
-0.000388334
-0.000403819
-0.00042169
-0.000433574
-0.000435503
-0.000433307
-0.000433171
-0.000439911
-0.000443996
-0.000443909
-0.000455135
-0.00047553
-0.000487108
-0.000485319
-0.000480598
-0.000468103
-0.000447224
-0.000426385
-0.00041354
-0.000421866
-0.000444297
-0.000466192
-0.000480906
-0.000481443
-0.000473478
-0.000469022
-0.000465982
-0.000464909
-0.000461193
-0.000459958
-0.000454668
-0.000438742
-0.000422782
-0.000400173
-0.000378102
-0.000353889
-0.000317979
-0.000266107
-0.000223439
-0.000183306
-0.000129803
-6.90592e-05
-2.554e-06
5.80986e-05
0.000126166
0.000191591
0.000255514
0.000324352
0.000405953
0.000492018
0.000575972
0.000658501
0.000747649
0.000840462
0.000937148
0.00103934
0.00113751
0.00122505
0.00132368
0.0013504
0.00136382
0.016893
0.0117908
0.00407316
-0.00178391
-0.00362065
-0.00308939
-0.00220474
-0.00149566
-0.00108755
-0.000927544
-0.000787944
-0.000642308
-0.000614593
-0.000648667
-0.000631057
-0.000603912
-0.000605352
-0.000591041
-0.000583694
-0.000617017
-0.000629739
-0.000591029
-0.000551566
-0.000543818
-0.000546635
-0.00052728
-0.000480092
-0.000431036
-0.00040905
-0.000398376
-0.000372966
-0.000351182
-0.000348202
-0.000343405
-0.000332854
-0.000327923
-0.000333179
-0.000350093
-0.000371314
-0.000387652
-0.000403165
-0.000421074
-0.000432993
-0.000434945
-0.000432769
-0.000432649
-0.000439417
-0.000443532
-0.000443459
-0.000454703
-0.00047513
-0.000486735
-0.000484961
-0.000480259
-0.000467783
-0.000446912
-0.000426079
-0.000413237
-0.000421577
-0.00044403
-0.000465942
-0.00048067
-0.000481219
-0.000473259
-0.000468812
-0.000465783
-0.00046472
-0.000461013
-0.000459788
-0.000454511
-0.000438592
-0.000422641
-0.000400041
-0.000377977
-0.000353775
-0.000317877
-0.000266009
-0.000223344
-0.000183222
-0.000129728
-6.89895e-05
-2.4877e-06
5.81595e-05
0.000126221
0.000191643
0.000255559
0.000324392
0.000405989
0.000492052
0.000576003
0.000658528
0.000747672
0.000840483
0.000937166
0.00103935
0.00113753
0.00122507
0.0013237
0.00135042
0.00136376
0.0161749
0.0116104
0.00429169
-0.0014228
-0.00339784
-0.00300559
-0.00216189
-0.00146228
-0.00106159
-0.000907993
-0.000773513
-0.00063163
-0.000605905
-0.00064084
-0.000623927
-0.000597709
-0.000600156
-0.000586583
-0.000579659
-0.000613352
-0.000626519
-0.000588292
-0.000549227
-0.000541696
-0.00054464
-0.000525445
-0.000478443
-0.000429529
-0.000407664
-0.000397114
-0.00037179
-0.000350081
-0.00034719
-0.000342453
-0.000331944
-0.000327063
-0.000332355
-0.000349303
-0.000370566
-0.000386939
-0.000402483
-0.000420431
-0.000432387
-0.000434364
-0.000432207
-0.000432099
-0.000438891
-0.00044304
-0.000442986
-0.000454253
-0.000474713
-0.000486346
-0.000484587
-0.000479909
-0.000467454
-0.000446586
-0.000425754
-0.000412914
-0.000421272
-0.000443757
-0.000465688
-0.00048043
-0.000480987
-0.00047303
-0.000468593
-0.000465575
-0.000464523
-0.000460826
-0.00045961
-0.000454348
-0.000438436
-0.000422494
-0.000399902
-0.000377845
-0.000353656
-0.000317769
-0.000265904
-0.000223242
-0.000183134
-0.000129648
-6.89156e-05
-2.41659e-06
5.82247e-05
0.000126281
0.0001917
0.000255607
0.000324433
0.000406027
0.00049209
0.000576036
0.000658557
0.000747697
0.000840506
0.000937185
0.00103937
0.00113755
0.00122509
0.00132372
0.00135047
0.00136369
0.0154691
0.0114083
0.00451883
-0.00103935
-0.00315042
-0.0029093
-0.0021113
-0.0014202
-0.00102696
-0.000880892
-0.00075349
-0.000617462
-0.000594559
-0.000630269
-0.000614137
-0.000589123
-0.000592896
-0.000580474
-0.000574126
-0.000607979
-0.000621602
-0.000584318
-0.00054609
-0.000538865
-0.000541858
-0.000522877
-0.000476258
-0.000427638
-0.000405923
-0.000395506
-0.000370347
-0.000348786
-0.000345995
-0.000341317
-0.000330883
-0.000326089
-0.000331426
-0.000348401
-0.000369709
-0.000386129
-0.000401711
-0.000419697
-0.000431692
-0.000433704
-0.000431567
-0.000431461
-0.000438271
-0.000442463
-0.000442446
-0.000453748
-0.00047424
-0.000485898
-0.000484163
-0.000479517
-0.000467083
-0.000446213
-0.000425379
-0.000412543
-0.000420929
-0.000443453
-0.000465406
-0.000480158
-0.000480723
-0.000472769
-0.000468343
-0.000465337
-0.000464298
-0.000460611
-0.000459406
-0.000454159
-0.000438254
-0.000422325
-0.000399741
-0.000377691
-0.000353514
-0.000317641
-0.000265781
-0.000223122
-0.000183028
-0.000129552
-6.88278e-05
-2.33178e-06
5.83029e-05
0.000126353
0.000191768
0.000255663
0.000324482
0.000406073
0.000492135
0.000576077
0.000658592
0.000747727
0.000840534
0.000937209
0.0010394
0.00113758
0.00122511
0.00132377
0.00135055
0.0013636
0.0147768
0.0111788
0.00473474
-0.000653739
-0.00289141
-0.00280752
-0.00205968
-0.00137526
-0.000987584
-0.00084878
-0.000729404
-0.000600516
-0.000580912
-0.000617277
-0.000601966
-0.000578283
-0.000583562
-0.000572679
-0.000567033
-0.000600702
-0.000614651
-0.00057875
-0.000541858
-0.000535051
-0.000537992
-0.000519294
-0.000473345
-0.000425248
-0.000403708
-0.000393427
-0.000368549
-0.00034725
-0.000344567
-0.000339942
-0.000329625
-0.000324961
-0.000330348
-0.000347329
-0.00036868
-0.000385175
-0.000400817
-0.000418839
-0.000430876
-0.00043294
-0.000430826
-0.000430698
-0.000437505
-0.000441754
-0.000441811
-0.000453165
-0.000473684
-0.00048537
-0.000483672
-0.00047907
-0.000466656
-0.000445775
-0.000424933
-0.000412107
-0.000420534
-0.000443109
-0.000465082
-0.00047984
-0.000480409
-0.00047246
-0.000468048
-0.000465057
-0.000464032
-0.000460356
-0.00045916
-0.000453928
-0.000438034
-0.000422122
-0.000399547
-0.000377502
-0.000353337
-0.000317482
-0.00026563
-0.000222974
-0.000182894
-0.00012943
-6.87171e-05
-2.22513e-06
5.84021e-05
0.000126446
0.000191854
0.000255736
0.000324546
0.000406133
0.000492195
0.00057613
0.000658638
0.000747767
0.00084057
0.000937241
0.00103943
0.00113761
0.00122515
0.00132382
0.00135067
0.0013635
0.0141042
0.0109211
0.00493185
-0.000270299
-0.00262147
-0.0026999
-0.0020083
-0.00132961
-0.000945418
-0.000813475
-0.000702698
-0.000581678
-0.000565701
-0.000602712
-0.000588233
-0.000565892
-0.000572725
-0.000563603
-0.000558695
-0.000591823
-0.000605889
-0.000571637
-0.00053644
-0.00053012
-0.000532907
-0.000514567
-0.000469601
-0.000422294
-0.000400964
-0.000390815
-0.000366352
-0.000345442
-0.000342881
-0.000338309
-0.000328165
-0.00032368
-0.000329099
-0.000346029
-0.000367401
-0.000384008
-0.000399746
-0.000417812
-0.000429907
-0.000432057
-0.000429976
-0.000429786
-0.000436546
-0.00044086
-0.000441036
-0.000452464
-0.000473008
-0.000484734
-0.000483108
-0.00047857
-0.000466169
-0.000445259
-0.000424394
-0.000411582
-0.00042007
-0.000442707
-0.000464701
-0.000479456
-0.000480026
-0.000472083
-0.000467687
-0.000464712
-0.000463706
-0.000460041
-0.00045885
-0.000453632
-0.000437754
-0.000421867
-0.000399303
-0.000377258
-0.000353104
-0.000317274
-0.000265438
-0.000222784
-0.000182716
-0.000129267
-6.85713e-05
-2.08507e-06
5.85336e-05
0.000126569
0.000191968
0.000255832
0.000324632
0.000406215
0.000492274
0.000576202
0.000658701
0.000747822
0.000840622
0.000937287
0.00103948
0.00113765
0.0012252
0.00132391
0.00135084
0.00136339
0.013456
0.0106376
0.00510754
0.000110741
-0.00233888
-0.00258442
-0.00195686
-0.00128411
-0.000901375
-0.000775728
-0.000673944
-0.000561346
-0.000549355
-0.000587122
-0.000573503
-0.000552516
-0.000560926
-0.000553667
-0.000549505
-0.000581868
-0.000595873
-0.00056336
-0.000530012
-0.000524168
-0.000526708
-0.000508784
-0.000465062
-0.000418783
-0.000397711
-0.000387703
-0.000363775
-0.000343364
-0.000340929
-0.000336423
-0.000326527
-0.000322285
-0.000327714
-0.000344497
-0.000365823
-0.000382551
-0.000398417
-0.000416547
-0.000428737
-0.00043104
-0.000429023
-0.000428728
-0.000435376
-0.000439748
-0.000440081
-0.000451593
-0.000472148
-0.000483938
-0.000482447
-0.000478022
-0.000465641
-0.000444674
-0.000423753
-0.000410946
-0.00041951
-0.000442225
-0.000464242
-0.000478985
-0.000479553
-0.000471618
-0.000467236
-0.000464278
-0.000463293
-0.000459639
-0.000458448
-0.00045324
-0.000437387
-0.000421538
-0.000398987
-0.000376937
-0.000352791
-0.000316997
-0.000265189
-0.000222534
-0.000182474
-0.000129047
-6.83747e-05
-1.89641e-06
5.87126e-05
0.000126736
0.000192122
0.000255963
0.000324753
0.000406328
0.000492383
0.0005763
0.000658789
0.000747901
0.000840695
0.000937352
0.00103954
0.00113772
0.00122527
0.00132402
0.00135106
0.00136329
0.0128365
0.0103334
0.00526052
0.000488093
-0.00204345
-0.00245974
-0.00190514
-0.00123964
-0.000856236
-0.000735859
-0.00064329
-0.000539672
-0.000532062
-0.000570717
-0.000557994
-0.0005384
-0.000548416
-0.000543074
-0.000539694
-0.000571218
-0.000585064
-0.000554296
-0.000522838
-0.000517432
-0.000519653
-0.000502178
-0.000459869
-0.000414789
-0.000394031
-0.00038419
-0.000360893
-0.000341052
-0.000338733
-0.000334302
-0.000324735
-0.000320826
-0.000326271
-0.000342807
-0.000363976
-0.000380781
-0.000396768
-0.000414965
-0.0004273
-0.000429851
-0.000427969
-0.000427553
-0.000434025
-0.000438436
-0.000438948
-0.000450522
-0.00047104
-0.000482905
-0.00048163
-0.00047741
-0.000465097
-0.000444066
-0.000423045
-0.000410207
-0.000418834
-0.000441632
-0.000463675
-0.000478404
-0.000478972
-0.00047105
-0.000466676
-0.000463731
-0.000462767
-0.000459123
-0.000457923
-0.00045272
-0.000436902
-0.000421104
-0.000398573
-0.000376512
-0.000352366
-0.000316627
-0.000264866
-0.000222206
-0.000182148
-0.000128752
-6.81108e-05
-1.642e-06
5.89566e-05
0.000126965
0.00019233
0.000256144
0.00032492
0.000406485
0.000492531
0.000576434
0.000658911
0.000748012
0.000840798
0.000937446
0.00103964
0.00113781
0.00122537
0.00132418
0.00135135
0.0013632
0.01225
0.0100143
0.00538811
0.000858137
-0.00173613
-0.00232451
-0.00185279
-0.00119704
-0.000810684
-0.000693965
-0.000610628
-0.000516592
-0.000513812
-0.000553514
-0.000541738
-0.000523588
-0.000535251
-0.00053189
-0.000529367