/*--------------------------------*- C++ -*----------------------------------*\
| =========                 |                                                 |
| \\      /  F ield         | OpenFOAM: The Open Source CFD Toolbox           |
|  \\    /   O peration     | Version:  2106                                  |
|   \\  /    A nd           | Website:  www.openfoam.com                      |
|    \\/     M anipulation  |                                                 |
\*---------------------------------------------------------------------------*/
FoamFile
{
    version     2.0;
    format      ascii;
    arch        "LSB;label=32;scalar=64";
    class       volVectorField;
    location    "0.945";
    object      U;
}
// * * * * * * * * * * * * * * * * * * * * * * * * * * * * * * * * * * * * * //

dimensions      [0 1 -1 0 0 0 0];

internalField   nonuniform List<vector> 
9600
(
(0.838195 -0.00495398 0)
(1.16792 0.00937773 0)
(0.881256 -0.00899874 0)
(1.11028 0.00624333 0)
(0.880438 -0.00833856 0)
(1.16069 -0.000401916 0)
(0.934798 -7.42035e-05 0)
(1.14635 0.00412557 0)
(0.904117 0.00859122 0)
(1.13123 0.00269887 0)
(0.873991 -0.000415868 0)
(1.14232 0.0011008 0)
(0.890468 -0.00889709 0)
(1.14092 -0.00659816 0)
(0.887996 -0.0045292 0)
(1.14948 -0.00439436 0)
(0.896259 -0.0060484 0)
(1.14669 -0.00392652 0)
(0.8885 -0.00207986 0)
(1.14683 0.00121936 0)
(0.849843 -0.00507458 0)
(1.15903 0.00918592 0)
(0.899624 -0.0086807 0)
(1.10441 0.00643681 0)
(0.901528 -0.00894891 0)
(1.15081 -0.000889615 0)
(0.953098 -0.000132595 0)
(1.13414 0.00465347 0)
(0.928496 0.00856417 0)
(1.10817 0.00344709 0)
(0.91143 -0.00089884 0)
(1.1066 0.00099575 0)
(0.938542 -0.00902367 0)
(1.09621 -0.00640965 0)
(0.945244 -0.00482536 0)
(1.08946 -0.00464162 0)
(0.972036 -0.00582804 0)
(1.06542 -0.00414285 0)
(0.991979 -0.00116353 0)
(1.02991 0.000987545 0)
(0.87084 -0.00521868 0)
(1.14027 0.00896716 0)
(0.923841 -0.00836569 0)
(1.091 0.00648702 0)
(0.930106 -0.00949915 0)
(1.1283 -0.00123438 0)
(0.982477 -7.27512e-05 0)
(1.11068 0.00512586 0)
(0.967859 0.00879703 0)
(1.0765 0.00376147 0)
(0.958617 -0.000955708 0)
(1.0645 0.000688184 0)
(0.983385 -0.0088347 0)
(1.04897 -0.00654739 0)
(0.990836 -0.00472289 0)
(1.04289 -0.00520169 0)
(1.01193 -0.00528244 0)
(1.02797 -0.00460429 0)
(1.01839 -0.000319369 0)
(1.01642 0.00145418 0)
(0.897815 -0.00534792 0)
(1.11382 0.00871097 0)
(0.947717 -0.00808874 0)
(1.07166 0.00644824 0)
(0.956891 -0.00985273 0)
(1.097 -0.00165863 0)
(1.00926 2.87943e-05 0)
(1.08344 0.00535986 0)
(1.00308 0.00916089 0)
(1.05004 0.00393446 0)
(0.992122 -0.000761978 0)
(1.03525 0.000376066 0)
(1.00478 -0.00851544 0)
(1.021 -0.00672242 0)
(1.00696 -0.00462505 0)
(1.02256 -0.00562795 0)
(1.01773 -0.00501713 0)
(1.01867 -0.00472918 0)
(1.01735 -6.74001e-05 0)
(1.01728 0.00206144 0)
(0.926237 -0.00545784 0)
(1.0841 0.00842931 0)
(0.967323 -0.00783182 0)
(1.05051 0.00637944 0)
(0.976634 -0.0100452 0)
(1.06487 -0.00215875 0)
(1.02422 8.95396e-05 0)
(1.05935 0.00543997 0)
(1.0232 0.0095291 0)
(1.03325 0.00414039 0)
(1.00743 -0.000521409 0)
(1.01995 0.000232556 0)
(1.00936 -0.00818436 0)
(1.00833 -0.00683768 0)
(1.00816 -0.00463231 0)
(1.01351 -0.0059037 0)
(1.01355 -0.00488069 0)
(1.01308 -0.00480417 0)
(1.01343 9.10482e-05 0)
(1.01367 0.00245144 0)
(0.951692 -0.00554277 0)
(1.05613 0.00817779 0)
(0.981003 -0.00760253 0)
(1.03177 0.00628517 0)
(0.988668 -0.010124 0)
(1.03844 -0.00264881 0)
(1.02656 8.09921e-05 0)
(1.0407 0.00545168 0)
(1.02846 0.00982967 0)
(1.02344 0.00438884 0)
(1.01087 -0.000287853 0)
(1.01246 0.000210033 0)
(1.00809 -0.00786568 0)
(1.00261 -0.0069328 0)
(1.00566 -0.00465958 0)
(1.00785 -0.00607675 0)
(1.00826 -0.00480436 0)
(1.00743 -0.00485947 0)
(1.00869 0.0001482 0)
(1.00874 0.00278272 0)
(0.971332 -0.00559643 0)
(1.03357 0.0079868 0)
(0.989267 -0.00741654 0)
(1.01778 0.00617696 0)
(0.995206 -0.010119 0)
(1.02009 -0.00304612 0)
(1.02085 2.09037e-05 0)
(1.02648 0.00542506 0)
(1.02452 0.0100349 0)
(1.01703 0.00462938 0)
(1.00933 -6.87636e-05 0)
(1.00845 0.000216645 0)
(1.00637 -0.00755523 0)
(0.999914 -0.00701491 0)
(1.00304 -0.00466613 0)
(1.00408 -0.00619514 0)
(1.00376 -0.00474181 0)
(1.00266 -0.0048399 0)
(1.00371 0.000122267 0)
(1.00375 0.00311312 0)
(0.984464 -0.00561855 0)
(1.01777 0.00785429 0)
(0.993744 -0.00727419 0)
(1.00878 0.00606384 0)
(0.998819 -0.0100561 0)
(1.00888 -0.00332243 0)
(1.01238 -5.5197e-05 0)
(1.0153 0.00537055 0)
(1.01705 0.0101436 0)
(1.01221 0.00480873 0)
(1.00675 0.000119035 0)
(1.0062 0.000193781 0)
(1.00548 -0.00725343 0)
(0.998884 -0.00707569 0)
(1.00103 -0.00465415 0)
(1.00174 -0.00626229 0)
(1.0005 -0.00466553 0)
(0.999094 -0.00473052 0)
(0.999398 5.93408e-05 0)
(0.999167 0.0034513 0)
(0.992087 -0.00561332 0)
(1.00805 0.00776273 0)
(0.996075 -0.00716421 0)
(1.00367 0.00593994 0)
(1.00107 -0.0099567 0)
(1.00259 -0.00348342 0)
(1.00461 -0.000107562 0)
(1.00661 0.00529687 0)
(1.00967 0.010164 0)
(1.00854 0.00490001 0)
(1.00469 0.00026369 0)
(1.00505 0.00013071 0)
(1.00525 -0.00696882 0)
(0.998741 -0.00710546 0)
(0.999677 -0.00462146 0)
(1.00031 -0.00627277 0)
(0.998324 -0.00458431 0)
(0.996582 -0.00453473 0)
(0.996102 3.32345e-06 0)
(0.995399 0.00381452 0)
(0.995917 -0.00558622 0)
(1.00276 0.0076907 0)
(0.997374 -0.00707314 0)
(1.00103 0.00579808 0)
(1.00252 -0.00983165 0)
(0.99919 -0.00354818 0)
(0.99888 -0.000113676 0)
(1.00034 0.00520899 0)
(1.00403 0.0101104 0)
(1.00602 0.00490121 0)
(1.00347 0.000368054 0)
(1.00458 3.12163e-05 0)
(1.00531 -0.00670057 0)
(0.998939 -0.00709539 0)
(0.998832 -0.00457258 0)
(0.999385 -0.00623008 0)
(0.996878 -0.00450265 0)
(0.994832 -0.00425161 0)
(0.993758 -2.51066e-05 0)
(0.992584 0.00418665 0)
(0.997554 -0.0055426 0)
(1.0002 0.00762052 0)
(0.998223 -0.00698897 0)
(0.999742 0.00563875 0)
(1.00331 -0.00968432 0)
(0.997308 -0.00354504 0)
(0.995239 -7.42186e-05 0)
(0.996341 0.00510862 0)
(1.00047 0.00999944 0)
(1.00458 0.00482797 0)
(1.00296 0.000441011 0)
(1.00448 -9.17956e-05 0)
(1.00542 -0.00644174 0)
(0.999174 -0.00704497 0)
(0.99829 -0.00451937 0)
(0.998719 -0.00613073 0)
(0.995876 -0.00442315 0)
(0.993601 -0.00389064 0)
(0.992175 -1.62353e-05 0)
(0.99065 0.00453278 0)
(0.998112 -0.00548694 0)
(0.999108 0.00754143 0)
(0.998871 -0.00690234 0)
(0.999131 0.00546686 0)
(1.00353 -0.009515 0)
(0.996169 -0.00350347 0)
(0.993187 -2.05918e-06 0)
(0.994218 0.00499399 0)
(0.998666 0.00984778 0)
(1.00399 0.00470245 0)
(1.0029 0.000494094 0)
(1.00454 -0.00021964 0)
(1.00548 -0.00618974 0)
(0.999336 -0.00695722 0)
(0.997912 -0.00446833 0)
(0.998198 -0.005976 0)
(0.99516 -0.00434588 0)
(0.992738 -0.00348438 0)
(0.991171 3.32999e-05 0)
(0.989449 0.00482207 0)
(0.998216 -0.00542236 0)
(0.998715 0.00744842 0)
(0.999406 -0.00680745 0)
(0.998847 0.00528734 0)
(1.00338 -0.00932296 0)
(0.995406 -0.0034463 0)
(0.992158 8.81609e-05 0)
(0.993398 0.00486118 0)
(0.998057 0.00967015 0)
(1.00396 0.00454483 0)
(1.00309 0.000537045 0)
(1.00466 -0.000340912 0)
(1.00549 -0.00594408 0)
(0.999423 -0.00682962 0)
(0.997632 -0.00442552 0)
(0.997781 -0.00577672 0)
(0.994656 -0.00426811 0)
(0.99216 -0.00306066 0)
(0.990601 0.000133496 0)
(0.988823 0.00503611 0)
(0.99817 -0.00535065 0)
(0.998615 0.00733971 0)
(0.999845 -0.00670155 0)
(0.998727 0.00510343 0)
(1.00303 -0.00910757 0)
(0.994875 -0.0033885 0)
(0.991712 0.000184962 0)
(0.993332 0.00470721 0)
(0.998104 0.00947666 0)
(1.00419 0.0043701 0)
(1.00335 0.000580438 0)
(1.00476 -0.000447906 0)
(1.00545 -0.00570691 0)
(0.999465 -0.00665887 0)
(0.997429 -0.00439248 0)
(0.997459 -0.00554313 0)
(0.994323 -0.00418536 0)
(0.991812 -0.00263897 0)
(0.99035 0.000296559 0)
(0.988621 0.00517023 0)
(0.998101 -0.00527268 0)
(0.998616 0.00721498 0)
(1.00018 -0.00658364 0)
(0.998689 0.00491585 0)
(1.00265 -0.00886882 0)
(0.994526 -0.00333853 0)
(0.99157 0.000282594 0)
(0.993611 0.00453075 0)
(0.998415 0.00927369 0)
(1.00446 0.00418852 0)
(1.0036 0.000624702 0)
(1.00481 -0.000533903 0)
(1.00538 -0.00548265 0)
(0.999493 -0.00644804 0)
(0.997295 -0.00436395 0)
(0.997227 -0.00528421 0)
(0.994133 -0.00408463 0)
(0.991652 -0.00224065 0)
(0.990324 0.000522502 0)
(0.988711 0.00523791 0)
(0.998054 -0.00518885 0)
(0.99864 0.0070748 0)
(1.00042 -0.0064535 0)
(0.998687 0.00472351 0)
(1.00232 -0.00860792 0)
(0.994338 -0.00329987 0)
(0.991576 0.000380264 0)
(0.993988 0.00433252 0)
(0.998758 0.0090643 0)
(1.00465 0.00400567 0)
(1.00377 0.000666397 0)
(1.00482 -0.000595815 0)
(1.00528 -0.00527382 0)
(0.999521 -0.00620341 0)
(0.997223 -0.00434029 0)
(0.997078 -0.00500784 0)
(0.99406 -0.00394804 0)
(0.991639 -0.00188531 0)
(0.990455 0.000790852 0)
(0.988988 0.00526262 0)
(0.998038 -0.00509934 0)
(0.998659 0.0069201 0)
(1.00056 -0.0063108 0)
(0.998693 0.00452429 0)
(1.00205 -0.00832607 0)
(0.994285 -0.0032738 0)
(0.991656 0.000479114 0)
(0.994348 0.00411631 0)
(0.99903 0.00884968 0)
(1.00473 0.00382467 0)
(1.00385 0.000703116 0)
(1.00476 -0.000629849 0)
(1.00516 -0.00508588 0)
(0.999554 -0.00592961 0)
(0.997201 -0.00431776 0)
(0.997 -0.00473024 0)
(0.994075 -0.00376415 0)
(0.99174 -0.00157453 0)
(0.990692 0.00107411 0)
(0.989378 0.0052658 0)
(0.998049 -0.00500412 0)
(0.998668 0.00675157 0)
(1.00064 -0.00615515 0)
(0.998695 0.00431624 0)
(1.00185 -0.00802503 0)
(0.994336 -0.00325994 0)
(0.991776 0.000581503 0)
(0.994659 0.00388549 0)
(0.999206 0.00862951 0)
(1.0047 0.0036502 0)
(1.00386 0.000724251 0)
(1.00466 -0.000633504 0)
(1.00502 -0.0049215 0)
(0.999588 -0.00563375 0)
(0.997216 -0.00428053 0)
(0.996979 -0.00447108 0)
(0.994158 -0.00353128 0)
(0.991922 -0.00129882 0)
(0.990999 0.00135073 0)
(0.989832 0.00526721 0)
(0.998079 -0.00490318 0)
(0.998669 0.00656989 0)
(1.00067 -0.0059865 0)
(0.998688 0.00409832 0)
(1.00169 -0.00770768 0)
(0.994461 -0.00325613 0)
(0.991923 0.000689173 0)
(0.994924 0.00364437 0)
(0.999303 0.00840118 0)
(1.00459 0.00348556 0)
(1.00381 0.000730309 0)
(1.00451 -0.000608773 0)
(1.00486 -0.00477342 0)
(0.999622 -0.0053277 0)
(0.997251 -0.00421619 0)
(0.997001 -0.00423968 0)
(0.994289 -0.00325233 0)
(0.992161 -0.0010435 0)
(0.991353 0.00160194 0)
(0.990318 0.00527719 0)
(0.998121 -0.00479664 0)
(0.998663 0.00637592 0)
(1.00067 -0.00580511 0)
(0.998673 0.00386991 0)
(1.00155 -0.00737523 0)
(0.99463 -0.00326328 0)
(0.992087 0.000800571 0)
(0.995161 0.00339889 0)
(0.999347 0.00816175 0)
(1.00441 0.00333374 0)
(1.00372 0.000717628 0)
(1.00435 -0.000560348 0)
(1.0047 -0.00463597 0)
(0.999655 -0.00502269 0)
(0.997297 -0.00411663 0)
(0.997053 -0.00403661 0)
(0.994453 -0.00294411 0)
(0.992435 -0.000787434 0)
(0.991737 0.00181744 0)
(0.990819 0.00529564 0)
(0.99817 -0.00468422 0)
(0.998654 0.00616959 0)
(1.00066 -0.005611 0)
(0.998654 0.00363078 0)
(1.00143 -0.00702934 0)
(0.994825 -0.00327961 0)
(0.992262 0.000914808 0)
(0.995382 0.00315204 0)
(0.999364 0.00790904 0)
(1.00421 0.00319958 0)
(1.00361 0.000680279 0)
(1.00416 -0.000492567 0)
(1.00453 -0.00450496 0)
(0.999686 -0.00472882 0)
(0.997345 -0.00397524 0)
(0.997127 -0.0038537 0)
(0.994643 -0.00262651 0)
(0.992729 -0.000534874 0)
(0.992138 0.00198612 0)
(0.991325 0.00531284 0)
(0.998225 -0.00456606 0)
(0.998643 0.00595145 0)
(1.00064 -0.00540486 0)
(0.998635 0.00338169 0)
(1.00131 -0.00667174 0)
(0.995033 -0.00330263 0)
(0.992442 0.00103071 0)
(0.995595 0.00290802 0)
(0.999372 0.00764012 0)
(1.00399 0.0030862 0)
(1.00349 0.000622082 0)
(1.00397 -0.000408436 0)
(1.00436 -0.00437254 0)
(0.999719 -0.00445557 0)
(0.997392 -0.00379057 0)
(0.997216 -0.00368284 0)
(0.994851 -0.00231039 0)
(0.993031 -0.000264449 0)
(0.992549 0.00211426 0)
(0.991831 0.00531464 0)
(0.998283 -0.00444224 0)
(0.998633 0.00572204 0)
(1.00062 -0.00518719 0)
(0.998617 0.00312425 0)
(1.0012 -0.00630455 0)
(0.995248 -0.0033312 0)
(0.992627 0.00114401 0)
(0.995803 0.00267223 0)
(0.999379 0.00735163 0)
(1.00376 0.00299214 0)
(1.00337 0.000544582 0)
(1.00378 -0.000315176 0)
(1.00419 -0.00422948 0)
(0.999755 -0.00420531 0)
(0.997438 -0.00356875 0)
(0.997315 -0.00351446 0)
(0.995079 -0.00200758 0)
(0.993334 2.12747e-05 0)
(0.992959 0.00221811 0)
(0.992339 0.00528362 0)
(0.998344 -0.00431271 0)
(0.998623 0.0054813 0)
(1.0006 -0.00495879 0)
(0.998601 0.00286008 0)
(1.00109 -0.00593048 0)
(0.995467 -0.00336228 0)
(0.992812 0.00125282 0)
(0.996007 0.00244756 0)
(0.999391 0.00704252 0)
(1.00352 0.0029172 0)
(1.00325 0.000448397 0)
(1.00358 -0.000217468 0)
(1.00402 -0.00407134 0)
(0.999797 -0.00398221 0)
(0.997483 -0.00330825 0)
(0.997421 -0.00333606 0)
(0.995324 -0.00173521 0)
(0.993638 0.00031356 0)
(0.993364 0.00231731 0)
(0.992847 0.00520818 0)
(0.998407 -0.00417772 0)
(0.998615 0.00523074 0)
(1.00057 -0.00472209 0)
(0.998589 0.00259045 0)
(1.00098 -0.00555186 0)
(0.995689 -0.00339373 0)
(0.992999 0.00135489 0)
(0.996207 0.0022366 0)
(0.999409 0.00671331 0)
(1.00328 0.0028614 0)
(1.00313 0.000340427 0)
(1.00339 -0.000123529 0)
(1.00385 -0.00389247 0)
(0.999848 -0.00378835 0)
(0.997528 -0.0030138 0)
(0.997531 -0.00314298 0)
(0.995588 -0.00149772 0)
(0.993943 0.000623625 0)
(0.993754 0.00243915 0)
(0.993354 0.0050968 0)
(0.998471 -0.00403743 0)
(0.99861 0.0049713 0)
(1.00055 -0.00447816 0)
(0.99858 0.00231816 0)
(1.00087 -0.00517165 0)
(0.995915 -0.00342462 0)
(0.993189 0.00144734 0)
(0.9964 0.00204187 0)
(0.999433 0.00636392 0)
(1.00305 0.00282311 0)
(1.00301 0.000226519 0)
(1.0032 -3.62708e-05 0)
(1.00368 -0.00368911 0)
(0.999907 -0.00361812 0)
(0.997576 -0.00270752 0)
(0.99764 -0.0029149 0)
(0.995872 -0.00129026 0)
(0.994254 0.00091707 0)
(0.994125 0.00259296 0)
(0.993853 0.00497389 0)
(0.998536 -0.00389239 0)
(0.998608 0.00470326 0)
(1.00051 -0.00422855 0)
(0.998574 0.00204819 0)
(1.00076 -0.00479265 0)
(0.996144 -0.00345076 0)
(0.993381 0.00152742 0)
(0.996587 0.00186583 0)
(0.999465 0.00599479 0)
(1.00281 0.00279951 0)
(1.00289 0.000106945 0)
(1.00302 3.821e-05 0)
(1.00351 -0.00345707 0)
(0.999976 -0.0034701 0)
(0.997632 -0.00239308 0)
(0.997747 -0.00264516 0)
(0.99617 -0.00111037 0)
(0.994577 0.00116693 0)
(0.994478 0.00275934 0)
(0.994337 0.00485658 0)
(0.998603 -0.00374253 0)
(0.998611 0.00442821 0)
(1.00048 -0.00397695 0)
(0.998572 0.00177988 0)
(1.00065 -0.0044162 0)
(0.996376 -0.00346966 0)
(0.993578 0.00159036 0)
(0.996765 0.00170888 0)
(0.999504 0.00560708 0)
(1.00256 0.00278803 0)
(1.00278 -1.17978e-05 0)
(1.00285 8.7923e-05 0)
(1.00333 -0.00319399 0)
(1.00005 -0.00333186 0)
(0.997699 -0.0020823 0)
(0.997848 -0.0023446 0)
(0.996478 -0.000949745 0)
(0.994915 0.00137596 0)
(0.994815 0.00292418 0)
(0.994804 0.00475254 0)
(0.998669 -0.00358832 0)
(0.998618 0.00414804 0)
(1.00045 -0.00372545 0)
(0.998575 0.00151552 0)
(1.00053 -0.00404596 0)
(0.996608 -0.00348186 0)
(0.993779 0.00163756 0)
(0.996935 0.00157224 0)
(0.999551 0.00520005 0)
(1.00232 0.00278564 0)
(1.00265 -0.000119039 0)
(1.00269 0.000120194 0)
(1.00314 -0.00290133 0)
(1.00014 -0.00319129 0)
(0.997781 -0.00179503 0)
(0.997942 -0.00200864 0)
(0.996791 -0.000798017 0)
(0.995269 0.00154626 0)
(0.995139 0.00308597 0)
(0.995249 0.00466061 0)
(0.998736 -0.00343105 0)
(0.99863 0.0038639 0)
(1.00042 -0.00347443 0)
(0.998582 0.00125896 0)
(1.00042 -0.00368317 0)
(0.996839 -0.00348558 0)
(0.993985 0.00166893 0)
(0.997094 0.00146009 0)
(0.999607 0.00477406 0)
(1.00208 0.00279308 0)
(1.00253 -0.000210158 0)
(1.00255 0.000135421 0)
(1.00296 -0.00257878 0)
(1.00022 -0.00304612 0)
(0.99788 -0.00153702 0)
(0.99803 -0.00164495 0)
(0.997102 -0.000641572 0)
(0.995641 0.00166995 0)
(0.995454 0.00324177 0)
(0.995668 0.00458267 0)
(0.998803 -0.00327022 0)
(0.998646 0.00357836 0)
(1.00038 -0.00322936 0)
(0.998594 0.00101009 0)
(1.00031 -0.00333087 0)
(0.997068 -0.00347952 0)
(0.994198 0.0016819 0)
(0.997241 0.00137291 0)
(0.999672 0.00433722 0)
(1.00185 0.00280007 0)
(1.0024 -0.000276205 0)
(1.00242 0.0001168 0)
(1.00277 -0.0022293 0)
(1.0003 -0.00287451 0)
(0.998 -0.00131848 0)
(0.998114 -0.00127388 0)
(0.997403 -0.000472177 0)
(0.99603 0.00174563 0)
(0.995766 0.0033813 0)
(0.996057 0.00453426 0)
(0.998869 -0.00310684 0)
(0.998667 0.00329312 0)
(1.00035 -0.00299192 0)
(0.998612 0.000770963 0)
(1.0002 -0.00299011 0)
(0.997292 -0.00346354 0)
(0.994415 0.00167477 0)
(0.997375 0.0013104 0)
(0.999745 0.00389218 0)
(1.00162 0.00279543 0)
(1.00226 -0.00030224 0)
(1.00231 5.92696e-05 0)
(1.00258 -0.00187087 0)
(1.00038 -0.00265853 0)
(0.998139 -0.00113709 0)
(0.998199 -0.000916817 0)
(0.997689 -0.000279897 0)
(0.996433 0.00178431 0)
(0.996082 0.00348358 0)
(0.996413 0.00452594 0)
(0.998935 -0.00294199 0)
(0.998692 0.00300964 0)
(1.00031 -0.00276011 0)
(0.998635 0.000539968 0)
(1.00009 -0.00265631 0)
(0.997512 -0.00343756 0)
(0.994638 0.00164273 0)
(0.997494 0.00127455 0)
(0.999825 0.00343998 0)
(1.00141 0.00277722 0)
(1.00211 -0.000277426 0)
(1.00222 -2.36082e-05 0)
(1.00241 -0.00152337 0)
(1.00044 -0.00240173 0)
(0.998293 -0.000984961 0)
(0.998289 -0.000591191 0)
(0.997956 -5.8335e-05 0)
(0.996842 0.00180688 0)
(0.996412 0.00353272 0)
(0.996739 0.00454567 0)
(0.999001 -0.00277524 0)
(0.998722 0.00272977 0)
(1.00027 -0.00253719 0)
(0.998664 0.000319014 0)
(0.999986 -0.00233331 0)
(0.997725 -0.00339653 0)
(0.994867 0.00158726 0)
(0.997598 0.00126392 0)
(0.99991 0.00299031 0)
(1.00122 0.00273444 0)
(1.00195 -0.000198083 0)
(1.00214 -0.000120099 0)
(1.00225 -0.00120456 0)
(1.00048 -0.00210357 0)
(0.998457 -0.000856649 0)
(0.99839 -0.000308765 0)
(0.998204 0.000182687 0)
(0.997246 0.00183417 0)
(0.996757 0.00352965 0)
(0.997044 0.00456254 0)
(0.999065 -0.00260859 0)
(0.998757 0.00245425 0)
(1.00023 -0.0023206 0)
(0.998697 0.000105946 0)
(0.999882 -0.00202335 0)
(0.99793 -0.00333362 0)
(0.995102 0.00150468 0)
(0.997686 0.00128301 0)
(0.999996 0.00255706 0)
(1.00104 0.00266056 0)
(1.00177 -6.47512e-05 0)
(1.00208 -0.000209744 0)
(1.00212 -0.000932982 0)
(1.00051 -0.00177315 0)
(0.998622 -0.000730093 0)
(0.998507 -6.40005e-05 0)
(0.998438 0.000429951 0)
(0.997636 0.00188247 0)
(0.997115 0.00349365 0)
(0.997339 0.00455261 0)
(0.999127 -0.00244106 0)
(0.998796 0.00218328 0)
(1.00019 -0.0021108 0)
(0.998735 -0.000103334 0)
(0.999782 -0.00172629 0)
(0.998126 -0.00325253 0)
(0.995346 0.00139129 0)
(0.997757 0.00132922 0)
(1.00008 0.00214844 0)
(1.00089 0.00254611 0)
(1.00159 0.000103244 0)
(1.00202 -0.000274255 0)
(1.00201 -0.000716196 0)
(1.00053 -0.0014293 0)
(0.998783 -0.000587388 0)
(0.998639 0.000143531 0)
(0.998661 0.000661447 0)
(0.998008 0.0019525 0)
(0.997478 0.00344741 0)
(0.997632 0.00450996 0)
(0.999188 -0.00227404 0)
(0.99884 0.00191729 0)
(1.00015 -0.001904 0)
(0.998779 -0.000309384 0)
(0.999686 -0.00144732 0)
(0.998309 -0.00314706 0)
(0.995598 0.00124269 0)
(0.997813 0.00139173 0)
(1.00016 0.00177995 0)
(1.00077 0.00238552 0)
(1.0014 0.000292214 0)
(1.00196 -0.00030149 0)
(1.00193 -0.000552293 0)
(1.00055 -0.00109257 0)
(0.998935 -0.000424966 0)
(0.998783 0.000314636 0)
(0.998879 0.000865981 0)
(0.998361 0.00203582 0)
(0.997837 0.00340804 0)
(0.997924 0.00444535 0)
(0.999247 -0.00210799 0)
(0.998888 0.00165602 0)
(1.00011 -0.00169821 0)
(0.998827 -0.000510682 0)
(0.999597 -0.0011938 0)
(0.998477 -0.00300377 0)
(0.995858 0.00106005 0)
(0.997858 0.00146193 0)
(1.00022 0.00147049 0)
(1.00068 0.00218657 0)
(1.00121 0.000490286 0)
(1.00189 -0.000284064 0)
(1.00187 -0.000432247 0)
(1.00057 -0.000779074 0)
(0.999076 -0.000242613 0)
(0.998934 0.000463493 0)
(0.999097 0.00104134 0)
(0.998699 0.00211911 0)
(0.998188 0.00337947 0)
(0.998212 0.00437028 0)
(0.999304 -0.00194221 0)
(0.99894 0.00139938 0)
(1.00007 -0.00149913 0)
(0.99888 -0.000696624 0)
(0.999517 -0.000978828 0)
(0.998627 -0.00282153 0)
(0.996125 0.000861321 0)
(0.997897 0.0015292 0)
(1.00027 0.00122659 0)
(1.00062 0.00195915 0)
(1.00102 0.000676098 0)
(1.00181 -0.000219533 0)
(1.00183 -0.000342619 0)
(1.00059 -0.000497652 0)
(0.999203 -4.42818e-05 0)
(0.999086 0.000598892 0)
(0.999314 0.0011883 0)
(0.999024 0.00219469 0)
(0.99853 0.00336165 0)
(0.998492 0.0042953 0)
(0.999359 -0.00177944 0)
(0.998997 0.00115229 0)
(1.00002 -0.00130734 0)
(0.998935 -0.000865 0)
(0.99945 -0.000807318 0)
(0.99876 -0.00260457 0)
(0.996397 0.000656952 0)
(0.997935 0.00157548 0)
(1.0003 0.00105952 0)
(1.00059 0.00172141 0)
(1.00086 0.00082932 0)
(1.00171 -0.00011416 0)
(1.00181 -0.000266336 0)
(1.00062 -0.000254289 0)
(0.999319 0.000163129 0)
(0.999234 0.000728388 0)
(0.999531 0.00130753 0)
(0.99934 0.00225372 0)
(0.998862 0.00334629 0)
(0.998761 0.00422708 0)
(0.999411 -0.00161913 0)
(0.999058 0.000915032 0)
(0.999976 -0.00112373 0)
(0.998992 -0.00100843 0)
(0.999399 -0.000691037 0)
(0.998874 -0.00235436 0)
(0.996668 0.000463807 0)
(0.997976 0.00158722 0)
(1.00032 0.000956198 0)
(1.00058 0.00149239 0)
(1.00071 0.000935443 0)
(1.00161 1.02093e-05 0)
(1.00179 -0.000196499 0)
(1.00067 -5.38031e-05 0)
(0.999427 0.000373329 0)
(0.999374 0.000862932 0)
(0.999743 0.0014052 0)
(0.999649 0.00229455 0)
(0.999188 0.00332362 0)
(0.99902 0.00416865 0)
(0.999461 -0.00146324 0)
(0.999124 0.000690661 0)
(0.999931 -0.000955833 0)
(0.999046 -0.0011142 0)
(0.999364 -0.000636169 0)
(0.998975 -0.00208365 0)
(0.996933 0.000299915 0)
(0.998023 0.00156065 0)
(1.00031 0.000896198 0)
(1.00057 0.00128344 0)
(1.00058 0.0010026 0)
(1.00149 0.000148659 0)
(1.00178 -0.000121832 0)
(1.00074 0.000114339 0)
(0.999532 0.000581943 0)
(0.999501 0.00100898 0)
(0.999947 0.00148385 0)
(0.99995 0.00231338 0)
(0.999511 0.00328505 0)
(0.999272 0.00410931 0)
(0.999508 -0.00131238 0)
(0.999194 0.000483458 0)
(0.999889 -0.000812035 0)
(0.999096 -0.00117874 0)
(0.999348 -0.000630709 0)
(0.999066 -0.00180943 0)
(0.99719 0.000177136 0)
(0.998078 0.00150222 0)
(1.00029 0.000866576 0)
(1.00058 0.00111021 0)
(1.00048 0.00104075 0)
(1.00136 0.000292573 0)
(1.00177 -3.88444e-05 0)
(1.00082 0.000251473 0)
(0.999638 0.000776268 0)
(0.999611 0.00116834 0)
(1.00013 0.00155645 0)
(1.00024 0.00230982 0)
(0.999833 0.00322964 0)
(0.999528 0.00402911 0)
(0.999552 -0.00116778 0)
(0.999267 0.000293292 0)
(0.999851 -0.000692938 0)
(0.999139 -0.00119711 0)
(0.999349 -0.000663405 0)
(0.999153 -0.00155428 0)
(0.997432 0.000105849 0)
(0.99814 0.00142922 0)
(1.00026 0.000848239 0)
(1.00059 0.000971784 0)
(1.00039 0.00105933 0)
(1.00124 0.000434656 0)
(1.00175 5.47439e-05 0)
(1.00092 0.000357595 0)
(0.999753 0.000941437 0)
(0.999707 0.00133559 0)
(1.0003 0.00164219 0)
(1.00052 0.00229448 0)
(1.00015 0.00316638 0)
(0.999792 0.00392782 0)
(0.999593 -0.00103137 0)
(0.999343 0.000124214 0)
(0.99982 -0.00060274 0)
(0.999175 -0.00116613 0)
(0.999364 -0.000718192 0)
(0.99924 -0.00134453 0)
(0.997663 7.73894e-05 0)
(0.998206 0.00134928 0)
(1.00022 0.000830114 0)
(1.0006 0.000858173 0)
(1.00033 0.00106445 0)
(1.00111 0.000572302 0)
(1.00172 0.000155934 0)
(1.00102 0.000441595 0)
(0.999882 0.00107407 0)
(0.999796 0.00149675 0)
(1.00043 0.00174351 0)
(1.00078 0.0022741 0)
(1.00046 0.0030935 0)
(1.00006 0.00381733 0)
(0.999632 -0.000903221 0)
(0.999418 -2.56818e-05 0)
(0.999798 -0.000538632 0)
(0.999203 -0.00109671 0)
(0.999388 -0.000778732 0)
(0.999334 -0.00118957 0)
(0.997882 8.51558e-05 0)
(0.998273 0.00128247 0)
(1.00017 0.000813114 0)
(1.00062 0.000762826 0)
(1.0003 0.00106279 0)
(1.00099 0.000708208 0)
(1.00169 0.000264402 0)
(1.00114 0.000501186 0)
(1.00003 0.00117354 0)
(0.999886 0.00164034 0)
(1.00054 0.00186072 0)
(1.00101 0.00226403 0)
(1.00077 0.00300869 0)
(1.00033 0.00371225 0)
(0.999669 -0.000784857 0)
(0.999494 -0.000153113 0)
(0.999789 -0.000503303 0)
(0.999225 -0.000999 0)
(0.999416 -0.000821706 0)
(0.999437 -0.00109343 0)
(0.998098 0.000111935 0)
(0.998341 0.00124648 0)
(1.00012 0.000803535 0)
(1.00064 0.000676629 0)
(1.00029 0.00105056 0)
(1.00088 0.000839916 0)
(1.00164 0.00038682 0)
(1.00125 0.000546517 0)
(1.00019 0.0012359 0)
(0.999985 0.00175453 0)
(1.00063 0.0019801 0)
(1.00121 0.00227409 0)
(1.00106 0.00290951 0)
(1.0006 0.00360691 0)
(0.999704 -0.00067839 0)
(0.999567 -0.000255171 0)
(0.999792 -0.000492535 0)
(0.999245 -0.000885208 0)
(0.999443 -0.00083491 0)
(0.999548 -0.00104366 0)
(0.998315 0.000135556 0)
(0.998409 0.00123646 0)
(1.00006 0.000808702 0)
(1.00066 0.000603123 0)
(1.0003 0.00102145 0)
(1.00079 0.000958477 0)
(1.00157 0.000522127 0)
(1.00136 0.000597007 0)
(1.00038 0.00126299 0)
(1.0001 0.00183468 0)
(1.0007 0.00208657 0)
(1.00137 0.00230812 0)
(1.00134 0.00280744 0)
(1.00087 0.00348058 0)
(0.999736 -0.000583607 0)
(0.999637 -0.000332402 0)
(0.999808 -0.000501739 0)
(0.999266 -0.000767992 0)
(0.999466 -0.000810129 0)
(0.999666 -0.00102509 0)
(0.998542 0.000136336 0)
(0.99848 0.00124732 0)
(0.999997 0.000838151 0)
(1.00068 0.00054438 0)
(1.00035 0.000971885 0)
(1.00071 0.00106083 0)
(1.0015 0.000672625 0)
(1.00145 0.000660575 0)
(1.00057 0.00126557 0)
(1.00024 0.00187677 0)
(1.00077 0.0021653 0)
(1.00149 0.00235538 0)
(1.00158 0.00272628 0)
(1.00115 0.00332885 0)
(0.999766 -0.00050282 0)
(0.999702 -0.000379993 0)
(0.999837 -0.000532411 0)
(0.999292 -0.000656127 0)
(0.999481 -0.000738265 0)
(0.999785 -0.00102108 0)
(0.998781 8.90081e-05 0)
(0.998564 0.00126394 0)
(0.99992 0.000903385 0)
(1.00069 0.000510523 0)
(1.00041 0.000905946 0)
(1.00067 0.00113451 0)
(1.00142 0.000832187 0)
(1.00152 0.000740282 0)
(1.00077 0.00126151 0)
(1.0004 0.0018884 0)
(1.00085 0.00221262 0)
(1.00158 0.00239441 0)
(1.00178 0.00267677 0)
(1.00143 0.00316683 0)
(0.999795 -0.000436185 0)
(0.99976 -0.000399323 0)
(0.999875 -0.000574068 0)
(0.999328 -0.000564634 0)
(0.999487 -0.000628668 0)
(0.999893 -0.00100145 0)
(0.999035 1.26374e-06 0)
(0.99867 0.0012668 0)
(0.999838 0.00100557 0)
(1.00069 0.000515173 0)
(1.0005 0.000833023 0)
(1.00066 0.00117293 0)
(1.00134 0.00098421 0)
(1.00157 0.000840695 0)
(1.00097 0.00125719 0)
(1.00058 0.00187389 0)
(1.00095 0.00223458 0)
(1.00166 0.00241249 0)
(1.00194 0.00264956 0)
(1.00169 0.00302153 0)
(0.999822 -0.000381695 0)
(0.99981 -0.000394524 0)
(0.99992 -0.000619779 0)
(0.999378 -0.000497164 0)
(0.999488 -0.000502315 0)
(0.999984 -0.000944203 0)
(0.999298 -0.000116536 0)
(0.998808 0.00123142 0)
(0.999757 0.00112759 0)
(1.00066 0.000565378 0)
(1.00059 0.000764628 0)
(1.00069 0.00117357 0)
(1.00128 0.00111403 0)
(1.00159 0.000965905 0)
(1.00115 0.00126993 0)
(1.00078 0.00184095 0)
(1.00106 0.00223718 0)
(1.00174 0.0024133 0)
(1.00207 0.00262437 0)
(1.00191 0.00291204 0)
(0.999847 -0.000340707 0)
(0.99985 -0.000368226 0)
(0.999967 -0.000660447 0)
(0.999442 -0.000457194 0)
(0.99949 -0.000370347 0)
(1.00005 -0.000840226 0)
(0.999559 -0.000250704 0)
(0.998985 0.00112999 0)
(0.999692 0.00125108 0)
(1.00061 0.000671105 0)
(1.00067 0.00072666 0)
(1.00075 0.00114005 0)
(1.00125 0.00120934 0)
(1.00161 0.00109158 0)
(1.0013 0.0013093 0)
(1.00098 0.00180554 0)
(1.00118 0.00221903 0)
(1.00182 0.00240436 0)
(1.00219 0.00258573 0)
(1.00209 0.00283413 0)
(0.999871 -0.000308432 0)
(0.999881 -0.00033231 0)
(1.00001 -0.000685457 0)
(0.999522 -0.000446057 0)
(0.999499 -0.000243877 0)
(1.00009 -0.000694486 0)
(0.999802 -0.000357906 0)
(0.999202 0.000968831 0)
(0.999659 0.0013433 0)
(1.00053 0.000816598 0)
(1.00074 0.000725912 0)
(1.00084 0.0010914 0)
(1.00125 0.00126422 0)
(1.00162 0.00120057 0)
(1.00143 0.00136267 0)
(1.00117 0.00178246 0)
(1.00132 0.00218207 0)
(1.00191 0.00238573 0)
(1.00229 0.00253275 0)
(1.00224 0.00276482 0)
(0.999893 -0.000282711 0)
(0.999903 -0.000293893 0)
(1.00005 -0.000688785 0)
(0.999613 -0.000455942 0)
(0.999521 -0.000136048 0)
(1.00011 -0.000520986 0)
(1.00001 -0.000407373 0)
(0.999451 0.000772894 0)
(0.999673 0.00137538 0)
(1.00045 0.000982261 0)
(1.00078 0.000772666 0)
(1.00094 0.00104834 0)
(1.00128 0.0012789 0)
(1.00163 0.00128703 0)
(1.00155 0.00141405 0)
(1.00135 0.00176935 0)
(1.00147 0.0021376 0)
(1.00199 0.00235558 0)
(1.00239 0.00247664 0)
(1.00236 0.00268641 0)
(0.999913 -0.000263387 0)
(0.999919 -0.00025276 0)
(1.00008 -0.000669492 0)
(0.999714 -0.000475544 0)
(0.999562 -5.46234e-05 0)
(1.00011 -0.000340287 0)
(1.00019 -0.00038704 0)
(0.999715 0.000571849 0)
(0.999743 0.00133112 0)
(1.00037 0.00113763 0)
(1.00078 0.000874788 0)
(1.00103 0.00102563 0)
(1.00133 0.0012665 0)
(1.00167 0.00134189 0)
(1.00165 0.00145751 0)
(1.00152 0.00175355 0)
(1.00162 0.00208894 0)
(1.00208 0.00231342 0)
(1.00247 0.00242253 0)
(1.00249 0.0025967 0)
(0.99993 -0.000244977 0)
(0.999929 -0.000217454 0)
(1.0001 -0.000622577 0)
(0.999817 -0.00050057 0)
(0.999621 2.09722e-07 0)
(1.0001 -0.000168928 0)
(1.00031 -0.000310478 0)
(0.99997 0.000403312 0)
(0.999867 0.00121361 0)
(1.00032 0.00124735 0)
(1.00076 0.00100239 0)
(1.0011 0.00104025 0)
(1.00141 0.0012462 0)
(1.00171 0.00136595 0)
(1.00174 0.00149228 0)
(1.00168 0.00173915 0)
(1.00177 0.00203517 0)
(1.00217 0.0022614 0)
(1.00255 0.00236844 0)
(1.0026 0.00250227 0)
(0.999945 -0.000227007 0)
(0.999938 -0.000188786 0)
(1.00011 -0.000552155 0)
(0.999918 -0.000514535 0)
(0.999699 2.05613e-05 0)
(1.00009 -1.17554e-05 0)
(1.0004 -0.000196558 0)
(1.0002 0.000293629 0)
(1.00003 0.00106173 0)
(1.00032 0.00129292 0)
(1.00072 0.00112891 0)
(1.00114 0.0010928 0)
(1.00147 0.00123471 0)
(1.00178 0.00136562 0)
(1.00183 0.00150484 0)
(1.00181 0.0017251 0)
(1.00191 0.00197615 0)
(1.00227 0.00219544 0)
(1.00261 0.00231143 0)
(1.0027 0.00241011 0)
(0.999958 -0.000207683 0)
(0.999948 -0.000167609 0)
(1.00011 -0.000470437 0)
(1.00001 -0.000504753 0)
(0.999794 1.43061e-05 0)
(1.0001 0.000120147 0)
(1.00045 -5.90561e-05 0)
(1.00039 0.000241938 0)
(1.00022 0.000914542 0)
(1.00036 0.00126551 0)
(1.00069 0.00123258 0)
(1.00115 0.00116469 0)
(1.00153 0.00124533 0)
(1.00184 0.00136337 0)
(1.00192 0.00149902 0)
(1.00194 0.00170577 0)
(1.00204 0.00192084 0)
(1.00237 0.00211486 0)
(1.00268 0.00224569 0)
(1.00278 0.00232278 0)
(0.999968 -0.000185638 0)
(0.999958 -0.000155741 0)
(1.0001 -0.000382955 0)
(1.00009 -0.000471698 0)
(0.9999 3.6076e-07 0)
(1.00012 0.000213649 0)
(1.00048 8.87696e-05 0)
(1.00055 0.000249408 0)
(1.00041 0.000790026 0)
(1.00045 0.00119428 0)
(1.00069 0.00128767 0)
(1.00115 0.00124063 0)
(1.00157 0.00126883 0)
(1.0019 0.00136549 0)
(1.00201 0.00148663 0)
(1.00205 0.00167312 0)
(1.00216 0.00186955 0)
(1.00247 0.002028 0)
(1.00274 0.00216146 0)
(1.00285 0.0022367 0)
(0.999975 -0.000162136 0)
(0.99997 -0.000148745 0)
(1.00009 -0.000298494 0)
(1.00015 -0.00041238 0)
(1.00001 -1.56004e-05 0)
(1.00015 0.000271729 0)
(1.0005 0.000225499 0)