/*--------------------------------*- C++ -*----------------------------------*\
| =========                 |                                                 |
| \\      /  F ield         | OpenFOAM: The Open Source CFD Toolbox           |
|  \\    /   O peration     | Version:  2106                                  |
|   \\  /    A nd           | Website:  www.openfoam.com                      |
|    \\/     M anipulation  |                                                 |
\*---------------------------------------------------------------------------*/
FoamFile
{
    version     2.0;
    format      ascii;
    arch        "LSB;label=32;scalar=64";
    class       surfaceScalarField;
    location    "0.845";
    object      phi;
}
// * * * * * * * * * * * * * * * * * * * * * * * * * * * * * * * * * * * * * //

dimensions      [0 3 -1 0 0 0 0];

oriented        oriented;

internalField   nonuniform List<scalar> 
19000
(
1.17549e-06
-6.50362e-08
1.18826e-06
-1.72071e-08
1.17839e-06
6.07374e-07
1.12029e-06
-3.31805e-07
1.16619e-06
-2.16129e-07
1.16673e-06
-4.21408e-08
1.1426e-06
-4.239e-07
1.15153e-06
1.90694e-07
1.15476e-06
6.40059e-08
1.15023e-06
9.02479e-08
1.16631e-06
6.0706e-08
1.14786e-06
-2.7987e-07
1.17593e-06
2.47836e-07
1.15319e-06
-2.98437e-08
1.16754e-06
-2.55537e-08
1.16438e-06
5.59952e-08
1.16445e-06
-7.96085e-09
1.15795e-06
2.01293e-08
1.16016e-06
4.5584e-08
6.56303e-08
1.13337e-06
1.2308e-06
-7.15728e-08
1.24518e-06
-3.15916e-08
1.23099e-06
6.21562e-07
1.17541e-06
-2.76221e-07
1.2193e-06
-2.60022e-07
1.22381e-06
-4.66501e-08
1.19989e-06
-3.99982e-07
1.2105e-06
1.80086e-07
1.21108e-06
6.34251e-08
1.21102e-06
9.03059e-08
1.22189e-06
4.98366e-08
1.20723e-06
-2.65205e-07
1.22553e-06
2.29538e-07
1.21677e-06
-2.10915e-08
1.21716e-06
-2.59422e-08
1.23219e-06
4.09667e-08
1.2133e-06
1.09353e-08
1.22848e-06
4.94347e-09
1.20389e-06
7.01774e-08
5.32666e-08
1.21625e-06
1.28783e-06
-7.66225e-08
1.30347e-06
-4.72289e-08
1.28593e-06
6.39104e-07
1.23816e-06
-2.28447e-07
1.27379e-06
-2.9566e-07
1.28482e-06
-5.7677e-08
1.25885e-06
-3.74015e-07
1.27183e-06
1.67107e-07
1.26881e-06
6.64477e-08
1.27568e-06
8.3436e-08
1.27979e-06
4.57254e-08
1.27241e-06
-2.57821e-07
1.28152e-06
2.20423e-07
1.28504e-06
-2.46057e-08
1.27588e-06
-1.67847e-08
1.29351e-06
2.33378e-08
1.27735e-06
2.7095e-08
1.2847e-06
-2.40929e-09
1.27388e-06
8.09936e-08
6.1082e-08
1.26607e-06
1.34709e-06
-7.96098e-08
1.3629e-06
-6.30425e-08
1.34411e-06
6.579e-07
1.30747e-06
-1.91805e-07
1.33186e-06
-3.20055e-07
1.34749e-06
-7.33059e-08
1.32042e-06
-3.46944e-07
1.33238e-06
1.55149e-07
1.32931e-06
6.95179e-08
1.33983e-06
7.29174e-08
1.34104e-06
4.45145e-08
1.33813e-06
-2.54912e-07
1.3446e-06
2.13954e-07
1.35117e-06
-3.11742e-08
1.34285e-06
-8.46698e-09
1.35357e-06
1.26114e-08
1.34696e-06
3.37078e-08
1.34652e-06
-1.97001e-09
1.34279e-06
8.47219e-08
7.24661e-08
1.33141e-06
1.4095e-06
-8.07606e-08
1.42373e-06
-7.72678e-08
1.40623e-06
6.75399e-07
1.38107e-06
-1.66645e-07
1.39484e-06
-3.33825e-07
1.41045e-06
-8.8917e-08
1.38553e-06
-3.22023e-07
1.39425e-06
1.46433e-07
1.39416e-06
6.96002e-08
1.40507e-06
6.20103e-08
1.40634e-06
4.32492e-08
1.40466e-06
-2.53235e-07
1.41143e-06
2.07182e-07
1.41681e-06
-3.6553e-08
1.41183e-06
-3.48578e-09
1.41742e-06
7.02424e-09
1.41531e-06
3.58115e-08
1.41308e-06
2.62356e-10
1.41064e-06
8.71589e-08
8.33023e-08
1.39981e-06
1.47585e-06
-8.09342e-08
1.48689e-06
-8.83047e-08
1.4728e-06
6.89482e-07
1.45719e-06
-1.51029e-07
1.46324e-06
-3.39881e-07
1.47463e-06
-1.00301e-07
1.45444e-06
-3.01835e-07
1.46069e-06
1.40186e-07
1.46382e-06
6.64648e-08
1.47385e-06
5.1981e-08
1.47552e-06
4.15787e-08
1.47361e-06
-2.51319e-07
1.48058e-06
2.00209e-07
1.48414e-06
-4.01097e-08
1.4811e-06
-4.47235e-10
1.48425e-06
3.87015e-09
1.48359e-06
3.64776e-08
1.48087e-06
2.97571e-09
1.47988e-06
8.81499e-08
9.40417e-08
1.46914e-06
1.54635e-06
-8.10669e-08
1.55347e-06
-9.54271e-08
1.54385e-06
6.991e-07
1.53512e-06
-1.42293e-07
1.53652e-06
-3.41282e-07
1.54195e-06
-1.05737e-07
1.52673e-06
-2.86613e-07
1.53268e-06
1.34234e-07
1.53763e-06
6.1522e-08
1.54666e-06
4.29528e-08
1.54794e-06
4.02947e-08
1.54548e-06
-2.48858e-07
1.55221e-06
1.93474e-07
1.55399e-06
-4.18877e-08
1.55164e-06
1.90477e-09
1.55326e-06
2.24699e-09
1.55347e-06
3.62748e-08
1.5499e-06
6.53907e-09
1.55074e-06
8.73144e-08
1.04383e-07
1.5404e-06
1.62068e-06
-8.16199e-08
1.62423e-06
-9.89766e-08
1.61908e-06
7.04254e-07
1.61487e-06
-1.38082e-07
1.6136e-06
-3.40011e-07
1.6138e-06
-1.05941e-07
1.60214e-06
-2.74951e-07
1.60921e-06
1.27165e-07
1.61461e-06
5.61137e-08
1.62275e-06
3.4815e-08
1.62306e-06
3.99914e-08
1.62003e-06
-2.45832e-07
1.62646e-06
1.87046e-07
1.6265e-06
-4.19338e-08
1.6244e-06
4.00868e-09
1.62451e-06
2.14208e-09
1.62556e-06
3.52191e-08
1.62089e-06
1.12056e-08
1.62321e-06
8.5003e-08
1.13787e-07
1.6138e-06
1.6984e-06
-8.24441e-08
1.69941e-06
-9.99894e-08
1.6982e-06
7.05463e-07
1.69671e-06
-1.36589e-07
1.69366e-06
-3.36957e-07
1.69059e-06
-1.02873e-07
1.68085e-06
-2.65217e-07
1.68906e-06
1.18961e-07
1.69415e-06
5.10174e-08
1.7015e-06
2.74643e-08
1.70077e-06
4.07203e-08
1.69708e-06
-2.42139e-07
1.70331e-06
1.80816e-07
1.7018e-06
-4.04257e-08
1.7e-06
5.81217e-09
1.69849e-06
3.64768e-09
1.70032e-06
3.33974e-08
1.69449e-06
1.70263e-08
1.69759e-06
8.19099e-08
1.21975e-07
1.6894e-06
1.77934e-06
-8.30586e-08
1.77895e-06
-9.96073e-08
1.78113e-06
7.03292e-07
1.781e-06
-1.3646e-07
1.77645e-06
-3.32413e-07
1.77214e-06
-9.85599e-08
1.76324e-06
-2.56319e-07
1.77184e-06
1.10364e-07
1.77623e-06
4.66277e-08
1.78286e-06
2.08335e-08
1.7814e-06
4.21807e-08
1.77685e-06
-2.37595e-07
1.78303e-06
1.74643e-07
1.78028e-06
-3.76728e-08
1.779e-06
7.08278e-09
1.77593e-06
6.72658e-09
1.77835e-06
3.09728e-08
1.77145e-06
2.39288e-08
1.77452e-06
7.88339e-08
1.28847e-07
1.76765e-06
1.8637e-06
-8.30145e-08
1.86278e-06
-9.86806e-08
1.86787e-06
6.982e-07
1.86813e-06
-1.36723e-07
1.86221e-06
-3.26494e-07
1.85813e-06
-9.4472e-08
1.84956e-06
-2.47758e-07
1.8578e-06
1.02128e-07
1.8613e-06
4.31264e-08
1.86723e-06
1.49028e-08
1.86541e-06
4.40033e-08
1.85987e-06
-2.32055e-07
1.86615e-06
1.68364e-07
1.86246e-06
-3.39809e-08
1.86196e-06
7.5757e-09
1.85747e-06
1.12174e-08
1.86031e-06
2.8136e-08
1.85255e-06
3.16912e-08
1.85483e-06
7.65504e-08
1.34283e-07
1.8494e-06
1.95191e-06
-8.20837e-08
1.95091e-06
-9.76821e-08
1.95853e-06
6.90584e-07
1.95857e-06
-1.36768e-07
1.9514e-06
-3.19323e-07
1.9483e-06
-9.13729e-08
1.93994e-06
-2.39401e-07
1.94739e-06
9.4686e-08
1.94998e-06
4.05363e-08
1.9552e-06
9.67795e-09
1.9533e-06
4.59066e-08
1.94671e-06
-2.2547e-07
1.95328e-06
1.61796e-07
1.94885e-06
-2.95475e-08
1.94931e-06
7.11455e-09
1.94364e-06
1.68823e-08
1.94667e-06
2.51114e-08
1.93843e-06
3.99246e-08
1.93929e-06
7.56936e-08
1.38097e-07
1.93548e-06
2.04436e-06
-8.02582e-08
2.04348e-06
-9.68019e-08
2.05324e-06
6.80829e-07
2.05276e-06
-1.36288e-07
2.04451e-06
-3.1108e-07
2.04258e-06
-8.9441e-08
2.03446e-06
-2.3128e-07
2.04098e-06
8.8165e-08
2.04277e-06
3.87511e-08
2.04729e-06
5.15864e-09
2.04548e-06
4.771e-08
2.03789e-06
-2.17871e-07
2.04493e-06
1.54751e-07
2.03983e-06
-2.44501e-08
2.04131e-06
5.63419e-09
2.03477e-06
2.34299e-08
2.03769e-06
2.21849e-08
2.0295e-06
4.81155e-08
2.02856e-06
7.6635e-08
1.40183e-07
2.02647e-06
2.14141e-06
-7.76658e-08
2.14067e-06
-9.6068e-08
2.15219e-06
6.69312e-07
2.1511e-06
-1.352e-07
2.142e-06
-3.01977e-07
2.14104e-06
-8.84838e-08
2.13323e-06
-2.23468e-07
2.13889e-06
8.25115e-08
2.14006e-06
3.75753e-08
2.1439e-06
1.32446e-09
2.14232e-06
4.92856e-08
2.13377e-06
-2.09324e-07
2.14144e-06
1.47079e-07
2.1357e-06
-1.87039e-08
2.13814e-06
3.19742e-09
2.13104e-06
3.05273e-08
2.13351e-06
1.97122e-08
2.12591e-06
5.5713e-08
2.12309e-06
7.94625e-08
1.40627e-07
2.12264e-06
2.24331e-06
-7.4489e-08
2.24268e-06
-9.54324e-08
2.25561e-06
6.5638e-07
2.25395e-06
-1.33541e-07
2.24422e-06
-2.92247e-07
2.24388e-06
-8.81408e-08
2.23642e-06
-2.16017e-07
2.24133e-06
7.76095e-08
2.24213e-06
3.67688e-08
2.24532e-06
-1.85808e-09
2.24408e-06
5.05213e-08
2.23465e-06
-1.99898e-07
2.24303e-06
1.38705e-07
2.23666e-06
-1.23332e-08
2.23986e-06
-5.88957e-12
2.23257e-06
3.78137e-08
2.2342e-06
1.80865e-08
2.22769e-06
6.22227e-08
2.22316e-06
8.39959e-08
1.39762e-07
2.22402e-06
2.3503e-06
-7.09092e-08
2.34969e-06
-9.48274e-08
2.36373e-06
6.42339e-07
2.36157e-06
-1.31379e-07
2.35145e-06
-2.82128e-07
2.35134e-06
-8.80299e-08
2.34428e-06
-2.08956e-07
2.34854e-06
7.33511e-08
2.34922e-06
3.60858e-08
2.35178e-06
-4.42137e-09
2.35099e-06
5.13151e-08
2.34076e-06
-1.89664e-07
2.34982e-06
1.29645e-07
2.34291e-06
-5.42146e-09
2.34657e-06
-3.67315e-09
2.33947e-06
4.49121e-08
2.33987e-06
1.76945e-08
2.33481e-06
6.72765e-08
2.32894e-06
8.98699e-08
1.38085e-07
2.33062e-06
2.46256e-06
-6.70764e-08
2.46193e-06
-9.41987e-08
2.47684e-06
6.27431e-07
2.47423e-06
-1.28767e-07
2.46395e-06
-2.71844e-07
2.46374e-06
-8.78278e-08
2.45709e-06
-2.02299e-07
2.46077e-06
6.96654e-08
2.46155e-06
3.53077e-08
2.46352e-06
-6.38866e-09
2.46324e-06
5.15915e-08
2.45228e-06
-1.78707e-07
2.46192e-06
1.20006e-07
2.45463e-06
1.86971e-09
2.45838e-06
-7.42354e-09
2.45183e-06
5.14613e-08
2.45072e-06
1.8803e-08
2.44725e-06
7.07518e-08
2.44053e-06
9.65925e-08
1.36142e-07
2.44247e-06
2.58032e-06
-6.30977e-08
2.57963e-06
-9.3517e-08
2.59523e-06
6.11831e-07
2.59218e-06
-1.25717e-07
2.58193e-06
-2.61589e-07
2.5814e-06
-8.72948e-08
2.57516e-06
-1.96064e-07
2.5783e-06
6.65237e-08
2.57934e-06
3.42653e-08
2.58073e-06
-7.77883e-09
2.581e-06
5.1325e-08
2.56945e-06
-1.67154e-07
2.57947e-06
1.0998e-07
2.57204e-06
9.30866e-09
2.57546e-06
-1.08464e-08
2.56977e-06
5.71525e-08
2.56707e-06
2.15005e-08
2.56502e-06
7.2803e-08
2.55803e-06
1.03581e-07
1.34443e-07
2.55973e-06
2.70377e-06
-5.90408e-08
2.70303e-06
-9.27732e-08
2.71921e-06
5.95646e-07
2.7157e-06
-1.22208e-07
2.70563e-06
-2.51517e-07
2.7046e-06
-8.62663e-08
2.69882e-06
-1.90282e-07
2.70142e-06
6.39268e-08
2.70283e-06
3.28505e-08
2.70368e-06
-8.62116e-09
2.70444e-06
5.05558e-08
2.69248e-06
-1.55185e-07
2.70264e-06
9.98192e-08
2.69532e-06
1.66263e-08
2.69803e-06
-1.35612e-08
2.6934e-06
6.17831e-08
2.68922e-06
2.56838e-08
2.68824e-06
7.37868e-08
2.68157e-06
1.10246e-07
1.33375e-07
2.68264e-06
2.83317e-06
-5.49457e-08
2.83237e-06
-9.19661e-08
2.84909e-06
5.78927e-07
2.84508e-06
-1.18198e-07
2.8353e-06
-2.41744e-07
2.83367e-06
-8.46309e-08
2.82838e-06
-1.84994e-07
2.83042e-06
6.18863e-08
2.83225e-06
3.10197e-08
2.8326e-06
-8.97469e-09
2.83377e-06
4.93942e-08
2.82162e-06
-1.43037e-07
2.83163e-06
8.98103e-08
2.82468e-06
2.35717e-08
2.82642e-06
-1.53002e-08
2.8229e-06
6.53061e-08
2.81748e-06
3.11031e-08
2.81715e-06
7.41148e-08
2.81128e-06
1.16114e-07
1.3314e-07
2.81152e-06
2.96879e-06
-5.08378e-08
2.96791e-06
-9.10928e-08
2.98515e-06
5.6169e-07
2.98059e-06
-1.13636e-07
2.97121e-06
-2.32362e-07
2.96888e-06
-8.23074e-08
2.96413e-06
-1.80242e-07
2.96562e-06
6.04027e-08
2.96784e-06
2.87946e-08
2.96781e-06
-8.94343e-09
2.96919e-06
4.80115e-08
2.95713e-06
-1.30977e-07
2.9667e-06
8.02419e-08
2.96033e-06
2.99433e-08
2.96096e-06
-1.59318e-08
2.95844e-06
6.78304e-08
2.9521e-06
3.74371e-08
2.95209e-06
7.413e-08
2.94732e-06
1.20879e-07
1.33766e-07
2.9467e-06
3.11091e-06
-4.67379e-08
3.10996e-06
-9.01427e-08
3.12772e-06
5.43931e-07
3.12255e-06
-1.08467e-07
3.11363e-06
-2.23448e-07
3.11056e-06
-7.92331e-08
3.10637e-06
-1.76057e-07
3.10733e-06
5.94451e-08
3.10986e-06
2.62651e-08
3.10961e-06
-8.69064e-09
3.11099e-06
4.66323e-08
3.09929e-06
-1.19277e-07
3.10818e-06
7.13502e-08
3.10247e-06
3.56545e-08
3.102e-06
-1.54694e-08
3.10029e-06
6.95445e-08
3.09334e-06
4.43896e-08
3.0934e-06
7.40704e-08
3.08989e-06
1.24382e-07
1.35141e-07
3.08852e-06
3.25984e-06
-4.26679e-08
3.25879e-06
-8.90947e-08
3.27709e-06
5.2563e-07
3.27126e-06
-1.02632e-07
3.26289e-06
-2.15076e-07
3.25901e-06
-7.53602e-08
3.2554e-06
-1.72439e-07
3.2559e-06
5.89375e-08
3.25858e-06
2.35879e-08
3.25833e-06
-8.43649e-09
3.25945e-06
4.55074e-08
3.24835e-06
-1.08171e-07
3.25642e-06
6.32744e-08
3.25132e-06
4.07562e-08
3.24989e-06
-1.40363e-08
3.24879e-06
7.06397e-08
3.24145e-06
5.1732e-08
3.24141e-06
7.41058e-08
3.23924e-06
1.26553e-07
1.37058e-07
3.23732e-06
3.41592e-06
-3.86531e-08
3.41474e-06
-8.79161e-08
3.43361e-06
5.06758e-07
3.42705e-06
-9.60737e-08
3.41928e-06
-2.07309e-07
3.41459e-06
-7.06615e-08
3.41151e-06
-1.69358e-07
3.41169e-06
5.87508e-08
3.4143e-06
2.09838e-08
3.4143e-06
-8.44269e-09
3.41494e-06
4.487e-08
3.40456e-06
-9.77942e-08
3.41181e-06
5.60222e-08
3.40717e-06
4.54004e-08
3.40489e-06
-1.17538e-08
3.40432e-06
7.12037e-08
3.39675e-06
5.93097e-08
3.39646e-06
7.43958e-08
3.39565e-06
1.27357e-07
1.39258e-07
3.39345e-06
3.57948e-06
-3.47241e-08
3.57813e-06
-8.65621e-08
3.59761e-06
4.87277e-07
3.59027e-06
-8.87334e-08
3.58316e-06
-2.00201e-07
3.57764e-06
-6.51396e-08
3.57502e-06
-1.66735e-07
3.57507e-06
5.86997e-08
3.57733e-06
1.87209e-08
3.57786e-06
-8.97604e-09
3.57785e-06
4.48808e-08
3.56818e-06
-8.81259e-08
3.57475e-06
4.94535e-08
3.57035e-06
4.98073e-08
3.56729e-06
-8.69757e-09
3.56725e-06
7.1246e-08
3.55959e-06
6.69638e-08
3.55887e-06
7.51167e-08
3.55942e-06
1.26813e-07
1.41428e-07
3.55725e-06
3.7509e-06
-3.09166e-08
3.74931e-06
-8.49736e-08
3.76945e-06
4.67139e-07
3.76127e-06
-8.0559e-08
3.75486e-06
-1.93786e-07
3.74855e-06
-5.88345e-08
3.74626e-06
-1.64439e-07
3.74641e-06
5.85456e-08
3.74803e-06
1.71015e-08
3.74933e-06
-1.02768e-08
3.74863e-06
4.55858e-08
3.73948e-06
-7.89835e-08
3.74559e-06
4.33427e-08
3.74123e-06
5.41741e-08
3.73737e-06
-4.84348e-09
3.73788e-06
7.07368e-08
3.73042e-06
7.44264e-08
3.72903e-06
7.65034e-08
3.73083e-06
1.25012e-07
1.43205e-07
3.72906e-06
3.93054e-06
-2.72727e-08
3.92865e-06
-8.30758e-08
3.9495e-06
4.46286e-07
3.94045e-06
-7.1509e-08
3.93473e-06
-1.88065e-07
3.92773e-06
-5.18372e-08
3.92557e-06
-1.62281e-07
3.92612e-06
5.80039e-08
3.92679e-06
1.64254e-08
3.929e-06
-1.24861e-08
3.92773e-06
4.68596e-08
3.91878e-06
-7.00372e-08
3.92467e-06
3.74549e-08
3.92026e-06
5.8579e-08
3.91547e-06
-4.82877e-11
3.91655e-06
6.96531e-08
3.90964e-06
8.13383e-08
3.90739e-06
7.87505e-08
3.91019e-06
1.22212e-07
1.44174e-07
3.90922e-06
4.11882e-06
-2.38404e-08
4.11652e-06
-8.07793e-08
4.13816e-06
4.24651e-07
4.12821e-06
-6.15615e-08
4.12314e-06
-1.82994e-07
4.1156e-06
-4.42943e-08
4.11333e-06
-1.60016e-07
4.11457e-06
5.67666e-08
4.11405e-06
1.69386e-08
4.11716e-06
-1.55894e-08
4.11561e-06
4.84057e-08
4.10646e-06
-6.08879e-08
4.11227e-06
3.16502e-08
4.10791e-06
6.29359e-08
4.102e-06
5.85986e-09
4.10361e-06
6.80455e-08
4.09762e-06
8.73301e-08
4.09447e-06
8.18943e-08
4.09782e-06
1.18865e-07
1.43949e-07
4.09805e-06
4.31613e-06
-2.06724e-08
4.31334e-06
-7.7982e-08
4.33582e-06
4.02164e-07
4.32499e-06
-5.07228e-08
4.32047e-06
-1.78477e-07
4.31259e-06
-3.64207e-08
4.30991e-06
-1.57333e-07
4.31215e-06
5.4523e-08
4.3103e-06
1.87907e-08
4.31411e-06
-1.93964e-08
4.31271e-06
4.98076e-08
4.30297e-06
-5.11517e-08
4.30866e-06
2.59578e-08
4.30459e-06
6.70129e-08
4.29749e-06
1.29571e-08
4.29944e-06
6.60921e-08
4.29469e-06
9.20802e-08
4.29081e-06
8.57737e-08
4.29414e-06
1.15535e-07
1.42311e-07
4.29578e-06
4.52293e-06
-1.78265e-08
4.51951e-06
-7.4569e-08
4.54293e-06
3.78753e-07
4.53124e-06
-3.90403e-08
4.52711e-06
-1.74344e-07
4.5192e-06
-2.85071e-08
4.51573e-06
-1.53865e-07
4.51925e-06
5.09979e-08
4.51608e-06
2.19621e-08
4.52021e-06
-2.35216e-08
4.51938e-06
5.064e-08
4.50883e-06
-4.06088e-08
4.51416e-06
2.06322e-08
4.5107e-06
7.04744e-08
4.5025e-06
2.11542e-08
4.50451e-06
6.40841e-08
4.5012e-06
9.5391e-08
4.49691e-06
9.0063e-08
4.49973e-06
1.12709e-07
1.39361e-07
4.50268e-06
4.73965e-06
-1.53631e-08
4.73551e-06
-7.04236e-08
4.75989e-06
3.5437e-07
4.74748e-06
-2.66308e-08
4.74348e-06
-1.70349e-07
4.73588e-06
-2.0905e-08
4.73124e-06
-1.49219e-07
4.73624e-06
4.5994e-08
4.73195e-06
2.62488e-08
4.73587e-06
-2.74362e-08
4.73595e-06
5.05601e-08
4.7246e-06
-2.92603e-08
4.72917e-06
1.60655e-08
4.72663e-06
7.30081e-08
4.71765e-06
3.01411e-08
4.71931e-06
6.2419e-08
4.71749e-06
9.72124e-08
4.71319e-06
9.43612e-08
4.71523e-06
1.10667e-07
1.35498e-07
4.7191e-06
4.96678e-06
-1.33431e-08
4.96179e-06
-6.54338e-08
4.98715e-06
3.29011e-07
4.97422e-06
-1.37e-08
4.97002e-06
-1.66156e-07
4.96314e-06
-1.40201e-08
4.95693e-06
-1.43013e-07
4.96347e-06
3.94606e-08
4.95846e-06
3.12554e-08
4.96157e-06
-3.05464e-08
4.96273e-06
4.93986e-08
4.95079e-06
-1.73223e-08
4.95415e-06
1.2706e-08
4.95282e-06
7.43423e-08
4.94346e-06
3.95008e-08
4.94443e-06
6.14513e-08
4.944e-06
9.76437e-08
4.94003e-06
9.83215e-08
4.94129e-06
1.09409e-07
1.31273e-07
4.94552e-06
5.2048e-06
-1.1825e-08
5.19887e-06
-5.95032e-08
5.22514e-06
3.02735e-07
5.21201e-06
-5.65854e-10
5.20719e-06
-1.61342e-07
5.20146e-06
-8.28937e-09
5.19336e-06
-1.34913e-07
5.20129e-06
3.15369e-08
5.19612e-06
3.64257e-08
5.19784e-06
-3.22702e-08
5.20005e-06
4.71931e-08
5.18792e-06
-5.19227e-09
5.18968e-06
1.09383e-08
5.18968e-06
7.43519e-08
5.18043e-06
4.87462e-08
5.18046e-06
6.14196e-08
5.1812e-06
9.69045e-08
5.17784e-06
1.01681e-07
5.17846e-06
1.08792e-07
1.27122e-07
5.18261e-06
5.45422e-06
-1.08603e-08
5.44729e-06
-5.25667e-08
5.47434e-06
2.75686e-07
5.46145e-06
1.23189e-08
5.45551e-06
-1.55404e-07
5.45135e-06
-4.13057e-09
5.44123e-06
-1.24793e-07
5.45007e-06
2.27048e-08
5.4454e-06
4.10964e-08
5.44532e-06
-3.21893e-08
5.44838e-06
4.41259e-08
5.43647e-06
6.7192e-09
5.43646e-06
1.09528e-08
5.43768e-06
7.31286e-08
5.42903e-06
5.73917e-08
5.42801e-06
6.24428e-08
5.42966e-06
9.52549e-08
5.42708e-06
1.04264e-07
5.4272e-06
1.08666e-07
1.23243e-07
5.43108e-06
5.71559e-06
-1.04889e-08
5.70762e-06
-4.46025e-08
5.7352e-06
2.48104e-07
5.72315e-06
2.43736e-08
5.71555e-06
-1.47803e-07
5.71329e-06
-1.87501e-09
5.70131e-06
-1.12814e-07
5.71026e-06
1.37574e-08
5.7067e-06
4.4657e-08
5.70464e-06
-3.01293e-08
5.70825e-06
4.05161e-08
5.69705e-06
1.79224e-08
5.69531e-06
1.26945e-08
5.69742e-06
7.10128e-08
5.68972e-06
6.50974e-08
5.68768e-06
6.44808e-08
5.68994e-06
9.29962e-08
5.68828e-06
1.05924e-07
5.68802e-06
1.0892e-07
1.19679e-07
5.69159e-06
5.98944e-06
-1.07346e-08
5.98048e-06
-3.56444e-08
6.00826e-06
2.20324e-07
5.99767e-06
3.49612e-08
5.98791e-06
-1.38044e-07
5.98769e-06
-1.65249e-09
5.97434e-06
-9.946e-08
5.98245e-06
5.64031e-09
5.98038e-06
4.67277e-08
5.97652e-06
-2.62609e-08
5.98017e-06
3.6858e-08
5.97019e-06
2.79085e-08
5.96695e-06
1.59287e-08
5.96952e-06
6.84421e-08
5.96302e-06
7.16028e-08
5.96006e-06
6.74372e-08
5.96259e-06
9.04734e-08
5.96202e-06
1.0649e-07
5.96149e-06
1.09454e-07
1.16477e-07
5.96469e-06
6.27636e-06
-1.16031e-08
6.26649e-06
-2.57763e-08
6.29405e-06
1.92761e-07
6.28552e-06
4.34917e-08
6.27331e-06
-1.25828e-07
6.27493e-06
-3.27183e-09
6.26097e-06
-8.5503e-08
6.26731e-06
-6.97004e-10
6.26688e-06
4.7149e-08
6.26157e-06
-2.09428e-08
6.26475e-06
3.36763e-08
6.25631e-06
3.63441e-08
6.25201e-06
2.02278e-08
6.25466e-06
6.57992e-08
6.24949e-06
7.67714e-08
6.24581e-06
7.11177e-08
6.24821e-06
8.80704e-08
6.24885e-06
1.05854e-07
6.24824e-06
1.10056e-07
1.13761e-07
6.25096e-06
6.57694e-06
-1.30783e-08
6.5663e-06
-1.51294e-08
6.59318e-06
1.65875e-07
6.58718e-06
4.94991e-08
6.57255e-06
-1.112e-07
6.57545e-06
-6.17782e-09
6.56179e-06
-7.18438e-08
6.56563e-06
-4.53602e-09
6.56665e-06
4.61301e-08
6.56049e-06
-1.47787e-08
6.56273e-06
3.14302e-08
6.55595e-06
4.31293e-08
6.55104e-06
2.51356e-08
6.55353e-06
6.33135e-08
6.54969e-06
8.06095e-08
6.54557e-06
7.52357e-08
6.54749e-06
8.61533e-08
6.54928e-06
1.0406e-07
6.54894e-06
1.10399e-07
1.11642e-07
6.55106e-06
6.89183e-06
-1.51204e-08
6.88057e-06
-3.86632e-09
6.9063e-06
1.40141e-07
6.90315e-06
5.26543e-08
6.88646e-06
-9.45141e-08
6.88985e-06
-9.56744e-09
6.87734e-06
-5.93273e-08
6.87838e-06
-5.57986e-09
6.8803e-06
4.42126e-08
6.87413e-06
-8.61378e-09
6.87523e-06
3.03353e-08
6.86971e-06
4.86417e-08
6.86462e-06
3.02329e-08
6.86682e-06
6.11103e-08
6.86426e-06
8.31731e-08
6.86001e-06
7.94855e-08
6.86119e-06
8.49723e-08
6.86388e-06
1.0137e-07
6.86417e-06
1.10103e-07
1.10102e-07
6.86571e-06
7.22168e-06
-1.76628e-08
7.20998e-06
7.83574e-09
7.2341e-06
1.16015e-07
7.23399e-06
5.27622e-08
7.21586e-06
-7.63826e-08
7.21885e-06
-1.25574e-08
7.20811e-06
-4.85794e-08
7.20653e-06
-4.00634e-09
7.20859e-06
4.21562e-08
7.20311e-06
-3.13446e-09
7.20319e-06
3.02516e-08
7.19845e-06
5.33878e-08
7.19333e-06
3.53536e-08
7.19522e-06
5.92155e-08
7.19385e-06
8.45442e-08
7.18977e-06
8.35614e-08
7.19012e-06
8.46217e-08
7.19329e-06
9.8208e-08
7.19452e-06
1.08867e-07
1.08942e-07
7.19568e-06
7.56717e-06
-2.0608e-08
7.55523e-06
1.97774e-08
7.5773e-06
9.39411e-08
7.5803e-06
4.97627e-08
7.56154e-06
-5.76179e-08
7.56326e-06
-1.42773e-08
7.55466e-06
-3.99768e-08
7.55099e-06
-3.41605e-10
7.55246e-06
4.06905e-08
7.54789e-06
1.42912e-09
7.54737e-06
3.07762e-08
7.54308e-06
5.76789e-08
7.53784e-06
4.05913e-08
7.53941e-06
5.7649e-08
7.53919e-06
8.47646e-08
7.53554e-06
8.72046e-08
7.5351e-06
8.50592e-08
7.53829e-06
9.50241e-08
7.54055e-06
1.06607e-07
1.0781e-07
7.54168e-06
7.92903e-06
-2.38254e-08
7.91719e-06
3.16148e-08
7.93668e-06
7.4454e-08
7.94271e-06
4.37342e-08
7.9242e-06
-3.91075e-08
7.92395e-06
-1.40279e-08
7.91758e-06
-3.36093e-08
7.91257e-06
4.67284e-09
7.91279e-06
4.04613e-08
7.90903e-06
5.19816e-09
7.90841e-06
3.13941e-08
7.90447e-06
6.16203e-08
7.89898e-06
4.60788e-08
7.9001e-06
5.65291e-08
7.90098e-06
8.38861e-08
7.89802e-06
9.01635e-08
7.89692e-06
8.61533e-08
7.89977e-06
9.21751e-08
7.90289e-06
1.03486e-07
1.06318e-07
7.90439e-06
8.30801e-06
-2.71505e-08
8.29677e-06
4.28478e-08
8.31311e-06
5.8114e-08
8.32188e-06
3.49692e-08
8.30451e-06
-2.1742e-08
8.30185e-06
-1.13694e-08
8.29746e-06
-2.92151e-08
8.29195e-06
1.01843e-08
8.29057e-06
4.18368e-08
8.28719e-06
8.58073e-09
8.2869e-06
3.16847e-08
8.28344e-06
6.50833e-08
8.27765e-06
5.18702e-08
8.27812e-06
5.60556e-08
8.27993e-06
8.20716e-08
8.27793e-06
9.21627e-08
8.27638e-06
8.77093e-08
8.27866e-06
8.98918e-08
8.28231e-06
9.9833e-08
1.04183e-07
8.28445e-06
8.7049e-06
-3.03902e-08
8.69486e-06
5.28917e-08
8.70755e-06
4.54243e-08
8.71855e-06
2.39637e-08
8.70317e-06
-6.36152e-09
8.69797e-06
-6.16246e-09
8.69497e-06
-2.62241e-08
8.68981e-06
1.53469e-08
8.68681e-06
4.48405e-08
8.68323e-06
1.21577e-08
8.68347e-06
3.14425e-08
8.68076e-06
6.77939e-08
8.67478e-06
5.78529e-08
8.67438e-06
5.64524e-08
8.67684e-06
7.96134e-08
8.676e-06
9.30008e-08
8.6743e-06
8.94096e-08
8.67587e-06
8.83203e-08
8.67969e-06
9.60139e-08
1.01325e-07
8.68255e-06
9.12056e-06
-3.33326e-08
9.11224e-06
6.12098e-08
9.12097e-06
3.66933e-08
9.13358e-06
1.13602e-08
9.12091e-06
6.30245e-09
9.11329e-06
1.45671e-09
9.11094e-06
-2.38691e-08
9.10683e-06
1.94613e-08
9.10247e-06
4.9198e-08
9.09813e-06
1.64954e-08
9.09885e-06
3.07198e-08
9.0972e-06
6.94514e-08
9.09126e-06
6.37843e-08
9.0899e-06
5.78213e-08
9.09257e-06
7.69362e-08
9.09298e-06
9.25961e-08
9.0915e-06
9.0886e-08
9.09236e-06
8.74618e-08
9.09601e-06
9.2368e-08
9.78565e-08
9.09947e-06
9.5559e-06
-3.57692e-08
9.54977e-06
6.73385e-08
9.55446e-06
3.19988e-08
9.56789e-06
-2.06992e-09
9.5585e-06
1.56992e-08
9.54886e-06
1.10972e-08
9.54629e-06
-2.1308e-08
9.54362e-06
2.21332e-08
9.53853e-06
5.42858e-08
9.53305e-06
2.19773e-08
9.53386e-06
2.9914e-08
9.53347e-06
6.98412e-08
9.52797e-06
6.92818e-08
9.52564e-06
6.01531e-08
9.52814e-06
7.4431e-08
9.52967e-06
9.10751e-08
9.52876e-06
9.1789e-08
9.52907e-06
8.71568e-08
9.53227e-06
8.91647e-08
9.40165e-08
9.53611e-06
1.00119e-05
-3.75191e-08
1.00083e-05
7.09446e-08
1.00092e-05
3.10945e-08
1.00225e-05
-1.53503e-08
1.00167e-05
2.14481e-08
1.00057e-05
2.2115e-08
1.00021e-05
-1.77339e-08
1.0001e-05
2.32634e-08
9.99589e-06
5.93916e-08
9.98922e-06
2.86401e-08
9.98946e-06
2.96814e-08
9.9904e-06
6.88939e-08
9.98574e-06
7.39415e-08
9.9826e-06
6.32935e-08
9.98464e-06
7.23995e-08
9.98699e-06
8.87217e-08
9.98692e-06
9.18627e-08
9.98693e-06
8.71374e-08
9.98955e-06
8.65533e-08
9.00898e-08
9.99347e-06
1.04896e-05
-3.84635e-08
1.04886e-05
7.19109e-08
1.04864e-05
3.3306e-08
1.04983e-05
-2.72197e-08
1.04963e-05
2.33899e-08
1.04848e-05
3.36012e-08
1.04796e-05
-1.24915e-08
1.04798e-05
2.30562e-08
1.04754e-05
6.37764e-08
1.04678e-05
3.63014e-08
1.04669e-05
3.05421e-08
1.04689e-05
6.69076e-08
1.04654e-05
7.74306e-08
1.04618e-05
6.69e-08
1.04631e-05
7.10807e-08
1.0466e-05
8.58547e-08
1.04668e-05
9.10218e-08
1.04669e-05
8.70624e-08
1.04689e-05
8.45467e-08
8.63453e-08
1.04726e-05
1.09901e-05
-3.8554e-08
1.09917e-05
7.03663e-08
1.09874e-05
3.76056e-08
1.09965e-05
-3.63395e-08
1.09981e-05
2.17338e-08
1.09874e-05
4.43556e-08
1.09801e-05
-5.17646e-09
1.0981e-05
2.21016e-08
1.09779e-05
6.68715e-08
1.09698e-05
4.44156e-08
1.09676e-05
3.27641e-08
1.097e-05
6.45401e-08
1.09679e-05
7.95214e-08
1.09642e-05
7.05653e-08
1.09647e-05
7.05566e-08
1.09678e-05
8.2794e-08
1.09694e-05
8.93537e-08
1.09699e-05
8.66264e-08
1.09714e-05
8.30171e-08
8.29975e-08
1.09748e-05
1.15146e-05
-3.78142e-08
1.15183e-05
6.66455e-08
1.1513e-05
4.29003e-08
1.15184e-05
-4.17059e-08
1.15231e-05
1.70901e-08
1.15142e-05
5.32447e-08
1.15049e-05
4.0454e-09
1.15057e-05
2.13804e-08
1.15042e-05
6.83342e-08
1.14964e-05
5.22631e-08
1.14927e-05
3.63971e-08
1.14949e-05
6.23666e-08
1.14941e-05
8.03161e-08
1.14907e-05
7.39384e-08
1.14906e-05
7.07132e-08
1.14935e-05
7.98431e-08
1.14959e-05
8.69929e-08
1.14968e-05
8.56841e-08
1.14982e-05
8.16915e-08
8.01607e-08
1.1501e-05
1.20643e-05
-3.63212e-08
1.20697e-05
6.12432e-08
1.20644e-05
4.8199e-08
1.20657e-05
-4.29646e-08
1.20722e-05
1.05984e-08
1.20661e-05
5.93431e-08
1.20556e-05
1.45143e-08
1.20552e-05
2.18229e-08
1.20553e-05
6.82546e-08
1.20482e-05
5.93028e-08
1.20436e-05
4.10146e-08
1.20451e-05
6.08118e-08
1.20453e-05
8.01713e-08
1.20425e-05
7.67705e-08
1.20418e-05
7.13698e-08
1.20444e-05
7.72153e-08
1.20473e-05
8.41102e-08
1.20488e-05
8.42179e-08
1.20502e-05
8.02968e-08
7.7789e-08
1.20525e-05
1.26405e-05
-3.42041e-08
1.2647e-05
5.47354e-08
1.26424e-05
5.2755e-08
1.264e-05
-4.0494e-08
1.26468e-05
3.73206e-09
1.26439e-05
6.22831e-08
1.26333e-05
2.51435e-08
1.26311e-05
2.39856e-08
1.26321e-05
6.72617e-08
1.26263e-05
6.50708e-08
1.26213e-05
4.60497e-08
1.26221e-05
6.0011e-08
1.26228e-05
7.94866e-08
1.26206e-05
7.89863e-08
1.26195e-05
7.2399e-08
1.26218e-05
7.49858e-08
1.2625e-05
8.09079e-08
1.2627e-05
8.21989e-08
1.26285e-05
7.8736e-08
7.56476e-08
1.26307e-05
1.32443e-05
-3.16191e-08
1.32515e-05
4.76283e-08
1.32481e-05
5.61235e-08
1.32427e-05
-3.51024e-08
1.32485e-05
-2.11118e-09
1.32486e-05
6.22513e-08
1.32389e-05
3.47823e-08
1.3235e-05
2.79054e-08
1.32361e-05
6.61908e-08
1.32317e-05
6.94569e-08
1.32267e-05
5.10203e-08
1.3227e-05
5.97311e-08
1.3228e-05
7.85403e-08
1.32263e-05
8.06513e-08
1.3225e-05
7.36996e-08
1.32268e-05
7.32203e-08
1.32301e-05
7.76028e-08
1.32327e-05
7.96065e-08
1.32344e-05
7.69625e-08
7.35332e-08
1.32365e-05
1.38773e-05
-2.87579e-08
1.38845e-05
4.04696e-08
1.38826e-05
5.80127e-08
1.38751e-05
-2.76486e-08
1.3879e-05
-6.02178e-09
1.38813e-05
5.99972e-08
1.38735e-05
4.25973e-08
1.38685e-05
3.29222e-08
1.38688e-05
6.5829e-08
1.38655e-05
7.27725e-08
1.3861e-05
5.55056e-08
1.3861e-05
5.97108e-08
1.38623e-05
7.72651e-08
1.38611e-05
8.19016e-08
1.38596e-05
7.51705e-08
1.38608e-05
7.20198e-08
1.3864e-05
7.43963e-08
1.38671e-05
7.65166e-08
1.38692e-05
7.4839e-08
7.14035e-08
1.38713e-05
1.45407e-05
-2.58038e-08
1.45474e-05
3.38113e-08
1.4547e-05
5.83332e-08
1.45384e-05
-1.90491e-08
1.454e-05
-7.5377e-09
1.45435e-05
5.64578e-08
1.45379e-05
4.82398e-08
1.45328e-05
3.80296e-08
1.45321e-05
6.64811e-08
1.45292e-05
7.56382e-08
1.45252e-05
5.95044e-08
1.45253e-05
5.96664e-08
1.45271e-05
7.54686e-08
1.45263e-05
8.26578e-08
1.45247e-05
7.67511e-08
1.45253e-05
7.14546e-08
1.45282e-05
7.14652e-08
1.45316e-05
7.31542e-08
1.45342e-05
7.22255e-08
6.91867e-08
1.45364e-05
1.5236e-05
-2.29151e-08
1.52417e-05
2.80853e-08
1.52428e-05
5.72381e-08
1.52339e-05
-1.01771e-08
1.52331e-05
-6.67112e-09
1.52368e-05
5.26995e-08
1.52333e-05
5.17436e-08
1.52289e-05
4.25053e-08
1.52276e-05
6.77525e-08
1.52248e-05
7.84479e-08
1.52208e-05
6.34277e-08
1.52209e-05
5.95837e-08
1.52234e-05
7.30398e-08
1.52235e-05
8.2472e-08
1.52219e-05
7.83766e-08
1.52219e-05
7.14771e-08
1.52243e-05
6.90465e-08
1.52277e-05
6.97462e-08
1.52308e-05
6.91859e-08
6.67313e-08
1.52332e-05
1.59646e-05
-2.01884e-08
1.59691e-05
2.35758e-08
1.59713e-05
5.50364e-08
1.59629e-05
-1.79366e-09
1.59599e-05
-3.66985e-09
1.59631e-05
4.95234e-08
1.59612e-05
5.36254e-08
1.59578e-05
4.59111e-08
1.59566e-05
6.89691e-08
1.59538e-05
8.12919e-08
1.59497e-05
6.7438e-08
1.59494e-05
5.98989e-08
1.59524e-05
7.0089e-08
1.59539e-05
8.09656e-08
1.59526e-05
7.96409e-08
1.59521e-05
7.19774e-08
1.59539e-05
6.73052e-08
1.59571e-05
6.6479e-08
1.59604e-05
6.59595e-08
6.39352e-08
1.59632e-05
1.6728e-05
-1.76342e-08
1.67314e-05
2.02681e-08
1.67341e-05
5.23274e-08
1.67267e-05
5.57006e-09
1.67222e-05
8.80067e-10
1.67242e-05
4.75102e-08
1.67231e-05
5.46921e-08
1.6721e-05
4.80436e-08
1.67205e-05
6.94419e-08
1.67179e-05
8.39015e-08
1.67137e-05
7.15992e-08
1.67126e-05
6.10333e-08
1.67157e-05
6.6963e-08
1.67185e-05
7.81955e-08
1.67183e-05
7.97833e-08
1.67175e-05
7.28243e-08
1.67186e-05
6.61857e-08
1.67215e-05
6.36285e-08
1.67247e-05
6.26828e-08
6.09349e-08
1.67277e-05
1.75279e-05
-1.52022e-08
1.75304e-05
1.7825e-08
1.75329e-05
4.97962e-08
1.75267e-05
1.17728e-08
1.75214e-05
6.14378e-09
1.75219e-05
4.70022e-08
1.75209e-05
5.57332e-08
1.75198e-05
4.91424e-08
1.75205e-05
6.87502e-08
1.75187e-05
8.56694e-08
1.75145e-05
7.58404e-08
1.75125e-05
6.29817e-08
1.75151e-05
6.43886e-08
1.75188e-05
7.44583e-08
1.75202e-05
7.84259e-08
1.75196e-05
7.34341e-08
1.75201e-05
6.56347e-08
1.75225e-05
6.13095e-08
1.75256e-05
5.95108e-08
5.78827e-08
1.75287e-05
1.8366e-05
-1.28467e-08
1.83678e-05
1.59857e-08
1.83699e-05
4.77595e-08
1.83645e-05
1.71431e-08
1.83594e-05
1.11991e-08
1.83587e-05
4.7781e-08
1.8357e-05
5.73782e-08
1.83562e-05
4.99276e-08
1.83581e-05
6.68488e-08
1.83578e-05
8.60132e-08
1.83538e-05
7.98454e-08
1.83512e-05
6.55601e-08
1.83527e-05
6.28651e-08
1.83568e-05
7.03558e-08
1.83596e-05
7.56834e-08
1.83599e-05
7.30652e-08
1.83601e-05
6.55055e-08
1.83619e-05
5.94624e-08
1.83648e-05
5.6643e-08
5.48379e-08
1.83678e-05
1.92441e-05
-1.05246e-08
1.92454e-05
1.46194e-08
1.9247e-05
4.62148e-08
1.92421e-05
2.20082e-08
1.92375e-05
1.58058e-08
1.92363e-05
4.89466e-08