/*--------------------------------*- C++ -*----------------------------------*\
| =========                 |                                                 |
| \\      /  F ield         | OpenFOAM: The Open Source CFD Toolbox           |
|  \\    /   O peration     | Version:  2106                                  |
|   \\  /    A nd           | Website:  www.openfoam.com                      |
|    \\/     M anipulation  |                                                 |
\*---------------------------------------------------------------------------*/
FoamFile
{
    version     2.0;
    format      ascii;
    arch        "LSB;label=32;scalar=64";
    class       volScalarField;
    location    "0.15";
    object      p;
}
// * * * * * * * * * * * * * * * * * * * * * * * * * * * * * * * * * * * * * //

dimensions      [0 2 -2 0 0 0 0];

internalField   nonuniform List<scalar> 
9600
(
7.23604e-11
-0.000681097
0.00078076
0.00169455
-0.000456775
0.000411235
0.0019618
0.00214752
0.00232377
0.00294679
0.00412428
0.00693033
0.00461471
0.00420648
0.00567778
0.00693212
0.0073967
0.00947891
0.0124805
0.016389
-2.57181e-08
-0.000683485
0.000783379
0.00169482
-0.000455512
0.00040953
0.00196272
0.00214575
0.00232517
0.00294671
0.00412724
0.00683117
0.00461977
0.00421786
0.00567601
0.0069258
0.00740626
0.00944259
0.0125248
0.0160308
-1.15142e-06
-0.000685369
0.000785859
0.00169342
-0.000451229
0.000407229
0.00196203
0.00214573
0.00232752
0.0029435
0.00412769
0.00673455
0.00463291
0.00423361
0.00567095
0.00692393
0.00740886
0.00940265
0.0125328
0.0155076
-3.81118e-06
-0.000685301
0.000787924
0.00168937
-0.000442355
0.000405939
0.0019576
0.00214926
0.00232986
0.00293619
0.00412993
0.00663407
0.00464506
0.00425269
0.00566392
0.00692132
0.00740856
0.00935915
0.0124885
0.0150366
-7.89927e-06
-0.000682641
0.000789972
0.0016821
-0.000428276
0.000405097
0.00194975
0.00215598
0.00233188
0.00292605
0.00413452
0.00652843
0.00465631
0.00427293
0.00565632
0.00691573
0.0074092
0.0093056
0.0124173
0.0146039
-1.3102e-05
-0.000677166
0.000792364
0.00167185
-0.000409543
0.000403923
0.00193976
0.00216485
0.0023337
0.00291434
0.00414013
0.00641944
0.00466755
0.00429278
0.00564992
0.00690747
0.00740944
0.0092444
0.0123211
0.0141926
-1.9014e-05
-0.000669107
0.000795387
0.00165943
-0.000387362
0.000402149
0.00192884
0.00217482
0.0023354
0.00290176
0.00414603
0.00630881
0.0046781
0.00431183
0.00564477
0.00689654
0.00740709
0.00917737
0.0121974
0.0137975
-2.52693e-05
-0.000658999
0.000799259
0.00164581
-0.000362974
0.00039985
0.0019177
0.0021849
0.00233709
0.00288864
0.00415178
0.00619731
0.00468749
0.00432967
0.00564001
0.0068835
0.00739979
0.00910491
0.0120456
0.0134163
-3.16472e-05
-0.000647458
0.000804094
0.00163178
-0.000337221
0.000397237
0.00190649
0.0021943
0.00233879
0.00287508
0.00415696
0.00608566
0.00469547
0.00434577
0.00563493
0.00686878
0.00738548
0.00902742
0.0118673
0.0130443
-3.80767e-05
-0.000635032
0.000809885
0.00161791
-0.000310486
0.000394542
0.00189507
0.00220243
0.00234043
0.00286109
0.00416125
0.00597458
0.00470162
0.00436002
0.00562855
0.00685271
0.00736266
0.0089451
0.0116642
0.0126757
-4.45722e-05
-0.000622143
0.000816552
0.00160448
-0.000282911
0.000391936
0.00188335
0.00220894
0.00234195
0.00284663
0.00416435
0.00586462
0.00470556
0.00437267
0.00561961
0.00683597
0.00733021
0.00885695
0.0114392
0.0123063
-5.11679e-05
-0.000609089
0.00082401
0.00159159
-0.000254644
0.000389465
0.00187137
0.00221373
0.00234328
0.00283165
0.00416592
0.00575621
0.00470669
0.00438408
0.00560717
0.00681909
0.00728713
0.00876137
0.0111959
0.0119332
-5.7879e-05
-0.000596075
0.000832205
0.00157922
-0.000225929
0.000387074
0.0018593
0.00221687
0.00234435
0.00281613
0.00416556
0.00564973
0.00470423
0.0043948
0.0055906
0.00680211
0.00723316
0.00865616
0.0109386
0.0115546
-6.46917e-05
-0.000583248
0.000841101
0.00156726
-0.000197061
0.000384652
0.00184735
0.00221853
0.00234505
0.00280009
0.00416285
0.00554556
0.00469742
0.00440532
0.00556916
0.00678465
0.00716912
0.00853807
0.0106722
0.0111707
-7.15698e-05
-0.000570727
0.000850673
0.00155566
-0.000168307
0.000382082
0.0018357
0.00221885
0.00234522
0.00278366
0.00415732
0.0054441
0.00468559
0.00441588
0.00554246
0.0067657
0.00709677
0.00840386
0.0103995
0.010783
-7.84604e-05
-0.000558624
0.00086089
0.00154438
-0.00013987
0.000379268
0.00182445
0.00221798
0.00234458
0.00276703
0.00414849
0.00534585
0.00466811
0.00442659
0.00551062
0.00674329
0.00701848
0.00825152
0.0101223
0.0103918
-8.52946e-05
-0.000547053
0.00087171
0.00153345
-0.000111897
0.000376146
0.00181362
0.00221606
0.00234283
0.00275045
0.00413585
0.00525115
0.00464461
0.00443718
0.00547397
0.00671498
0.00693628
0.00808014
0.00984173
0.0100049
-9.19906e-05
-0.000536129
0.000883072
0.0015229
-8.44965e-05
0.000372681
0.00180315
0.00221326
0.00233967
0.00273421
0.00411891
0.0051603
0.00461494
0.00444692
0.00543331
0.00667807
0.00685124
0.00789078
0.00955855
0.00962451
-9.84541e-05
-0.000525979
0.000894902
0.00151283
-5.77568e-05
0.000368866
0.00179296
0.00220976
0.00233475
0.00271857
0.00409733
0.00507342
0.00457921
0.00445455
0.00538997
0.00663003
0.00676333
0.0076858
0.00926713
0.00925377
-0.000104573
-0.000516742
0.000907106
0.00150332
-3.1771e-05
0.000364728
0.00178287
0.00220578
0.00232762
0.00270369
0.00407091
0.00499033
0.00453796
0.00445844
0.00534507
0.00656955
0.00667262
0.00746767
0.00896716
0.00889587
-0.000110221
-0.000508563
0.000919561
0.00149449
-6.6413e-06
0.000360326
0.00177266
0.0022016
0.00231789
0.00268958
0.00403962
0.00491066
0.00449191
0.00445675
0.00529911
0.00649646
0.00657958
0.00723958
0.00865791
0.00855204
-0.000115261
-0.000501594
0.000932121
0.00148646
1.7509e-05
0.000355752
0.00176207
0.00219747
0.00230533
0.00267609
0.00400361
0.00483368
0.00444214
0.00444773
0.00525213
0.00641172
0.00647705
0.00700434
0.00833927
0.00822151
-0.000119536
-0.000495991
0.000944599
0.0014794
4.05496e-05
0.000351127
0.00175078
0.00219363
0.00228975
0.00266298
0.00396324
0.00475802
0.00438992
0.00443045
0.00520311
0.00631635
0.00636639
0.00676399
0.00801155
0.00790296
-0.000122874
-0.000491908
0.00095676
0.0014735
6.23327e-05
0.000346615
0.00173844
0.0021902
0.00227116
0.00264972
0.00391941
0.00468228
0.00433598
0.00440439
0.00515023
0.00621135
0.00624726
0.00652025
0.00767583
0.00759446
-0.000125098
-0.000489495
0.000968326
0.00146895
8.26766e-05
0.000342394
0.00172478
0.00218718
0.00224967
0.00263548
0.00387349
0.00460546
0.00428032
0.00436961
0.00509159
0.00609775
0.00612021
0.0062745
0.00733327
0.00729361
-0.000126021
-0.000488886
0.00097896
0.001466
0.000101399
0.000338653
0.00170952
0.00218447
0.00222569
0.00261932
0.00382639
0.00452664
0.00422254
0.00432716
0.00502583
0.00597552
0.00598571
0.00602836
0.00698486
0.0069977
-0.000125435
-0.000490215
0.000988262
0.00146495
0.000118257
0.000335568
0.00169254
0.00218176
0.00219989
0.00259996
0.00377928
0.00444583
0.0041614
0.00427769
0.0049527
0.005844
0.00584361
0.00578445
0.00663209
0.00670338
-0.000123134
-0.000493583
0.000995783
0.00146614
0.000133026
0.000333181
0.00167382
0.0021786
0.00217299
0.00257608
0.00373247
0.00436369
0.00409505
0.00422119
0.0048731
0.00570289
0.00569326
0.00554595
0.00627807
0.0064066
-0.000118941
-0.000499028
0.001001
0.00146986
0.000145554
0.000331495
0.00165348
0.00217434
0.00214601
0.0025469
0.00368583
0.00428122
0.00402213
0.00415715
0.00478792
0.00555277
0.00553344
0.00531376
0.00592746
0.00610575
-0.00011266
-0.000506573
0.00100326
0.00147649
0.000155736
0.000330436
0.00163193
0.00216791
0.00212003
0.00251209
0.0036378
0.0041999
0.00394191
0.00408436
0.00469794
0.00539517
0.00536269
0.00508573
0.00558419
0.00580356
-0.000104096
-0.000516177
0.00100183
0.00148637
0.000163622
0.000329612
0.00160972
0.00215812
0.00209554
0.00247183
0.00358634
0.00412077
0.00385468
0.0040009
0.00460339
0.00523227
0.00518089
0.00485898
0.00524924
0.00550355
-9.3093e-05
-0.000527722
0.00099602
0.0014998
0.000169298
0.000328417
0.00158773
0.00214376
0.00207254
0.00242712
0.0035288
0.00404423
0.00376217
0.00390438
0.00450344
0.0050673
0.00498911
0.00463161
0.00492254
0.00520649
-7.95399e-05
-0.000541039
0.000985025
0.00151698
0.000172939
0.000326131
0.00156695
0.00212376
0.00205068
0.00237956
0.00346264
0.00396965
0.00366718
0.00379324
0.0043959
0.00490416
0.00478941
0.00440211
0.00460322
0.00491001
-6.3374e-05
-0.000555879
0.000967967
0.00153805
0.000174752
0.000321638
0.00154834
0.00209782
0.00202874
0.00233123
0.00338669
0.0038948
0.00357278
0.003668
0.00427675
0.00474481
0.0045862
0.00416951
0.00429036
0.00461077
-4.45668e-05
-0.000571862
0.00094395
0.00156291
0.000177116
0.000313625
0.00153291
0.00206578
0.00200458
0.00228427
0.00330124
0.003816
0.00348111
0.00353146
0.00414158
0.0045873
0.00438607
0.00393565
0.00398318
0.00430651
-2.31829e-05
-0.000588475
0.000912196
0.00159116
0.000180795
0.00030067
0.0015211
0.00202819
0.00197566
0.0022401
0.00320635
0.00372926
0.00339285
0.00338816
0.0039881
0.00442739
0.00419349
0.00370436
0.00368143
0.00399626
5.79338e-07
-0.000605086
0.000872076
0.00162232
0.000186986
0.000281193
0.00151268
0.00198753
0.00193922
0.00219887
0.00310507
0.00363103
0.00330663
0.00324368
0.00381751
0.00425952
0.00400769
0.00348063
0.00338799
0.00368077
2.64609e-05
-0.00062095
0.000823005
0.00165543
0.000197444
0.000254028
0.00150681
0.00194634
0.0018927
0.0021597
0.00300255
0.00351917
0.00321873
0.00310325
0.00363328
0.00407862
0.00382526
0.00326815
0.0031077
0.00336346
5.4141e-05
-0.000635244
0.000764606
0.00168912
0.000214089
0.000218468
0.00150175
0.00190757
0.00183447
0.00212004
0.00290362
0.00339348
0.00312327
0.00296956
0.00344143
0.00388244
0.00364094
0.00306604
0.00284535
0.00305097
8.31057e-05
-0.000646946
0.000696835
0.00172167
0.000238662
0.000174238
0.00149489
0.00187439
0.0017644
0.00207531
0.00281286
0.00325639
0.00301356
0.00284126
0.00325067
0.00367334
0.00344867
0.0028708
0.00260422
0.00275088
0.000112705
-0.000654974
0.000620063
0.00175091
0.000272732
0.000121671
0.00148285
0.0018495
0.00168382
0.00201971
0.00273104
0.00311389
0.00288521
0.00271406
0.00306818
0.00345675
0.00324433
0.00267552
0.0023825
0.0024715
0.000142252
-0.000658358
0.000534996
0.00177433
0.0003176
6.20053e-05
0.00146173
0.00183457
0.00159595
0.00194801
0.00265714
0.00297394
0.00273768
0.00258039
0.00289605
0.00324121
0.00302962
0.00247086
0.00217256
0.00222051
0.000170908
-0.000656098
0.000442756
0.00178909
0.000374129
-2.58722e-06
0.00142771
0.00182945
0.00150559
0.00185775
0.00258753
0.00284438
0.00257393
0.00243104
0.00273134
0.00303604
0.00281119
0.00225217
0.00196155
0.00199732
0.00019777
-0.000647376
0.000345126
0.00179215
0.000442201
-6.89781e-05
0.00137732
0.00184832
0.0014188
0.00174361
0.00251436
0.00273053
0.0024006
0.0022597
0.00256795
0.00284647
0.00259761
0.00202346
0.00173451
0.0017884
0.000221991
-0.000631626
0.000244196
0.00178053
0.000520743
-0.000132655
0.00130754
0.00185725
0.00134206
0.00160749
0.00242849
0.00263342
0.0022282
0.00206477
0.00239572
0.00267184
0.00239893
0.00179419
0.00148607
0.00157352
0.000242621
-0.000608442
0.000142424
0.00175134
0.000608389
-0.000188885
0.00121663
0.00186596
0.00128067
0.00144543
0.00232101
0.00255098
0.00206908
0.00185009
0.00220291
0.00250693
0.00222259
0.0015745
0.0012239
0.00133209
0.000258786
-0.000577625
4.27097e-05
0.00170183
0.000704336
-0.000232953
0.00110398
0.00186818
0.00123891
0.00127991
0.00218531
0.00247729
0.00193313
0.00162347
0.00198126
0.002342
0.00207088
0.00137508
0.000961169
0.00105924
0.000269854
-0.000539501
-5.20252e-05
0.00163029
0.000801101
-0.000260153
0.000971211
0.00185655
0.0012185
0.00111172
0.0020172
0.00240169
0.00182507
0.00139724
0.00172886
0.00216233
0.00193992
0.00120459
0.000709498
0.000767257
0.000275276
-0.000494813
-0.000138861
0.00153643
0.000894
-0.000266546
0.000822183
0.00182379
0.00121824
0.000951334
0.00181704
0.00231111
0.00174386
0.00118751
0.00145178
0.00195307
0.0018208
0.00106923
0.000479092
0.000473351
0.000274715
-0.000444742
-0.000215316
0.00142119
0.00097774
-0.000250254
0.000663682
0.00176442
0.00123653
0.000808801
0.00158946
0.00219312
0.00168409
0.00100861
0.00116127
0.00170501
0.00169694
0.000969912
0.000278523
0.000189246
0.000268148
-0.000390918
-0.000279472
0.00128739
0.00104651
-0.000211367
0.000502309
0.00167436
0.00125639
0.000691045
0.00134285
0.00203919
0.0016342
0.000868015
0.00087296
0.00141858
0.00154711
0.000898667
0.000118109
-7.86499e-05
0.00025573
-0.000325549
-0.000329865
0.00113897
0.00109488
-0.000150763
0.000349039
0.0015509
0.00127187
0.000602418
0.00109033
0.00184556
0.00157884
0.000766165
0.000605491
0.0011043
0.00135471
0.000837755
6.70123e-06
-0.000323616
0.000237545
-0.000274399
-0.000365801
0.000980947
0.00111858
-7.19996e-05
0.000209646
0.00139496
0.00127307
0.000544456
0.000846821
0.0016145
0.00150224
0.000697549
0.000374324
0.000777464
0.00111389
0.000760191
-5.87573e-05
-0.000532038
0.000213947
-0.000226895
-0.000386896
0.000818945
0.00111486
1.76252e-05
9.02331e-05
0.00121161
0.00125101
0.000521018
0.000624972
0.00135311
0.00139204
0.000650229
0.00018755
0.000456934
0.000831718
0.00064206
-9.51328e-05
-0.000688027
0.000185573
-0.000184902
-0.00039392
0.000658705
0.0010823
0.000105247
-5.70251e-06
0.00100963
0.00119851
0.000506193
0.000432366
0.00107283
0.00124174
0.000606941
4.50459e-05
0.000161129
0.000523831
0.000472356
-0.000131491
-0.000787641
0.000153358
-0.000150105
-0.000388785
0.000505324
0.00102048
0.000185151
-7.60221e-05
0.000800049
0.00111151
0.000497807
0.000273891
0.000789151
0.0010513
0.000550084
-5.98052e-05
-9.70625e-05
0.000208611
0.00025459
-0.00019738
-0.000844692
0.000118225
-0.000123678
-0.000374247
0.000362957
0.000931486
0.000250366
-0.000120828
0.000594033
0.000990394
0.000483422
0.000148985
0.000518094
0.000827261
0.000466508
-0.000138792
-0.000312264
-9.54779e-05
3.26564e-06
-0.000308387
-0.000885722
8.10087e-05
-0.000106315
-0.000353681
0.000234516
0.000820026
0.0002948
-0.000143755
0.000400451
0.000838977
0.000451957
5.29248e-05
0.000270996
0.000579942
0.000349048
-0.000208245
-0.000486648
-0.000374538
-0.00026422
-0.000464641
-0.000940782
4.2505e-05
-9.82067e-05
-0.000330722
0.000121626
0.000692059
0.000314411
-0.000150944
0.000225501
0.000664508
0.000396575
-2.37524e-05
5.3757e-05
0.000322742
0.000197196
-0.00028389
-0.000627197
-0.000620794
-0.000531605
-0.00065549
-0.00102794
3.34156e-06
-9.9117e-05
-0.000308868
2.4563e-05
0.000554287
0.000307488
-0.000150222
7.22144e-05
0.000476215
0.000314074
-9.1875e-05
-0.000132577
6.95797e-05
1.64696e-05
-0.000376818
-0.000744712
-0.000832527
-0.000786448
-0.000866152
-0.00115028
-3.60443e-05
-0.000108447
-0.000291135
-5.76759e-05
0.000413171
0.000274335
-0.00015185
-5.90217e-05
0.000283862
0.000205278
-0.000161686
-0.000291341
-0.000168648
-0.000184012
-0.000492581
-0.000852292
-0.00101304
-0.00102101
-0.00108333
-0.00130089
-7.53908e-05
-0.000125339
-0.000279879
-0.00012707
0.000274043
0.000216998
-0.000160929
-0.0001701
9.61046e-05
7.4179e-05
-0.000240899
-0.000428261
-0.000385788
-0.000393486
-0.000631047
-0.000961139
-0.00116858
-0.00123187
-0.00129685
-0.00146917
-0.000114647
-0.000148794
-0.000276551
-0.000186248
0.000140901
0.000139356
-0.000181864
-0.000264577
-8.08244e-05
-7.31559e-05
-0.000333729
-0.000551155
-0.000580575
-0.000601875
-0.000787494
-0.00107833
-0.00130791
-0.00141934
-0.00149985
-0.00164514
-0.000153902
-0.000177723
-0.000281888
-0.000238183
1.63009e-05
4.64592e-05
-0.000217621
-0.000347841
-0.000243587
-0.000229667
-0.000441179
-0.000667618
-0.000755043
-0.00080179
-0.000954948
-0.00120647
-0.00143943
-0.00158636
-0.00168845
-0.00182107
-0.000193307
-0.000211112
-0.000295955
-0.000285778
-9.86702e-05
-5.63751e-05
-0.000268901
-0.000425406
-0.000391529
-0.000388639
-0.000561601
-0.000783129
-0.00091248
-0.000989168
-0.0011264
-0.00134452
-0.00156922
-0.00173792
-0.00186141
-0.00199153
-0.000233029
-0.000248095
-0.000318116
-0.000331474
-0.000204177
-0.000164261
-0.000334543
-0.000501861
-0.000525951
-0.000544682
-0.000691558
-0.000900892
-0.00105722
-0.00116279
-0.00129612
-0.00148926
-0.00170042
-0.00187921
-0.00201982
-0.00215321
-0.000273226
-0.000287885
-0.00034743
-0.000377185
-0.000300908
-0.000273321
-0.000412198
-0.000580295
-0.00064898
-0.000694233
-0.000826863
-0.00102209
-0.00119337
-0.00132314
-0.00146008
-0.0016367
-0.00183358
-0.00201425
-0.00216613
-0.00230476
-0.000314008
-0.000329814
-0.00038278
-0.000424468
-0.000390101
-0.000380763
-0.000498823
-0.000662283
-0.000763245
-0.000835559
-0.000963456
-0.00114616
-0.00132393
-0.00147178
-0.00161586
-0.00178308
-0.00196755
-0.00214534
-0.00230301
-0.00244628
-0.000355396
-0.000373313
-0.000423057
-0.000473545
-0.000473055
-0.000484623
-0.000591091
-0.000748065
-0.000871195
-0.000968206
-0.00109796
-0.00127144
-0.0014506
-0.00161063
-0.00176246
-0.00192541
-0.00210041
-0.00227325
-0.00243255
-0.0025787
-0.000397307
-0.000417868
-0.000467065
-0.000524532
-0.000550947
-0.000583678
-0.000685895
-0.000836911
-0.000974577
-0.00109233
-0.00122792
-0.00139585
-0.00157397
-0.0017413
-0.00189981
-0.00206161
-0.00223008
-0.00239766
-0.00255595
-0.00270306
-0.000439544
-0.000462996
-0.000513498
-0.000577069
-0.000624785
-0.000677378
-0.000780607
-0.000927436
-0.00107434
-0.00120846
-0.00135167
-0.0015173
-0.00169366
-0.00186484
-0.00202827
-0.00219043
-0.00235473
-0.00251764
-0.00267358
-0.00282012
-0.000481779
-0.000508163
-0.00056119
-0.000630488
-0.000695115
-0.000765456
-0.000873075
-0.0010179
-0.00117068
-0.00131717
-0.00146819
-0.00163389
-0.00180876
-0.00198161
-0.0021482
-0.00231114
-0.0024729
-0.00263206
-0.00278521
-0.0029302
-0.000523549
-0.000552776
-0.00060908
-0.000683916
-0.000762034
-0.000847703
-0.000961616
-0.00110647
-0.00126322
-0.00141873
-0.00157682
-0.00174406
-0.00191808
-0.00209144
-0.00225975
-0.00242333
-0.0025835
-0.00273977
-0.00289019
-0.00303317
-0.000564265
-0.000596179
-0.000656102
-0.000736293
-0.000825302
-0.000923898
-0.0010449
-0.00119137
-0.00135107
-0.00151304
-0.00167703
-0.0018465
-0.00202035
-0.00219371
-0.00236275
-0.0025266
-0.00268567
-0.00283975
-0.00298774
-0.00312859
-0.000603211
-0.000637604
-0.000701186
-0.000786473
-0.000884372
-0.00099368
-0.00112174
-0.00127087
-0.00143309
-0.00159968
-0.00176834
-0.00194015
-0.00211431
-0.00228752
-0.00245669
-0.00262046
-0.00277863
-0.00293099
-0.00307692
-0.00321576
-0.000639535
-0.000676171
-0.000743238
-0.000833233
-0.000938421
-0.00105648
-0.00119106
-0.00134335
-0.0015079
-0.00167784
-0.00185003
-0.00202401
-0.00219874
-0.00237184
-0.00254084
-0.00270431
-0.00286167
-0.00301264
-0.00315684
-0.00329387
-0.000672265
-0.000710877
-0.000781122
-0.000875293
-0.000986386
-0.00111146
-0.00125174
-0.00140725
-0.00157391
-0.00174632
-0.00192114
-0.00209692
-0.00227233
-0.00244539
-0.00261411
-0.00277715
-0.00293381
-0.00308371
-0.00322653
-0.00336205
-0.000700318
-0.000740536
-0.000813508
-0.00091124
-0.001027
-0.00115756
-0.00130255
-0.00146097
-0.00162943
-0.00180362
-0.0019803
-0.00215747
-0.00233347
-0.0025065
-0.00267489
-0.00283741
-0.00299339
-0.00314243
-0.00328427
-0.0034187
-0.000722675
-0.000764108
-0.000839026
-0.000939311
-0.00105842
-0.001193
-0.00134159
-0.0015023
-0.00167208
-0.00184744
-0.00202538
-0.00220357
-0.00238006
-0.0025531
-0.00272121
-0.00288329
-0.00303866
-0.00318689
-0.00332776
-0.00346116
-0.000738607
-0.000781678
-0.000858577
-0.000960919
-0.0010827
-0.00122053
-0.00137198
-0.00153456
-0.00170549
-0.00188182
-0.00206072
-0.00223968
-0.00241659
-0.00258973
-0.00275775
-0.00291965
-0.00307476
-0.00322265
-0.00336305
-0.00349587
0.0246635
0.0155471
0.00474759
-0.00276828
-0.00537124
-0.00517221
-0.00468034
-0.0046742
-0.00486006
-0.0049353
-0.00513855
-0.00557092
-0.00588053
-0.00610405
-0.00650769
-0.00686735
-0.00707493
-0.00740419
-0.00781308
-0.00809816
-0.00834349
-0.00864237
-0.00893423
-0.00916866
-0.00935581
-0.00955035
-0.00977115
-0.0099635
-0.0101296
-0.0103309
-0.0105491
-0.0107359
-0.0109236
-0.0111505
-0.0113891
-0.0116141
-0.011844
-0.0120939
-0.0123546
-0.0126184
-0.0128891
-0.0131702
-0.0134603
-0.0137583
-0.0140643
-0.0143789
-0.0147021
-0.0150336
-0.0153736
-0.0157219
-0.0160786
-0.0164434
-0.0168163
-0.0171972
-0.0175861
-0.0179829
-0.0183877
-0.0188006
-0.0192215
-0.0196506
-0.020088
-0.0205337
-0.0209879
-0.0214507
-0.0219222
-0.0224025
-0.0228918
-0.0233902
-0.0238978
-0.0244148
-0.0249413
-0.0254776
-0.0260237
-0.0265799
-0.0271462
-0.0277232
-0.0283102
-0.0289088
-0.0295173
-0.0301383
-0.0307688
-0.0314131
-0.0320665
-0.0327346
-0.0334125
-0.0341041
-0.0348087
-0.0355231
-0.0362563
-0.0369943
-0.0377549
-0.0385212
-0.0393037
-0.0401039
-0.0409055
-0.0417342
-0.042563
-0.0433986
-0.0442424
-0.0450651
0.0233221
0.0153578
0.00483296
-0.00262665
-0.00528671
-0.00513294
-0.00465652
-0.00465773
-0.00484802
-0.00492527
-0.00512985
-0.00556408
-0.00587481
-0.00609859
-0.00650317
-0.00686377
-0.00707143
-0.007401
-0.00781062
-0.00809603
-0.00834152
-0.00864075
-0.00893296
-0.00916769
-0.00935502
-0.00954968
-0.00977065
-0.00996315
-0.0101292
-0.0103306
-0.0105489
-0.0107358
-0.0109235
-0.0111504
-0.011389
-0.0116141
-0.011844
-0.0120939
-0.0123546
-0.0126184
-0.0128891
-0.0131702
-0.0134604
-0.0137583
-0.0140643
-0.0143789
-0.0147021
-0.0150336
-0.0153736
-0.0157219
-0.0160786
-0.0164434
-0.0168163
-0.0171972
-0.0175861
-0.0179829
-0.0183877
-0.0188006
-0.0192215
-0.0196506
-0.020088
-0.0205337
-0.0209879
-0.0214507
-0.0219222
-0.0224025
-0.0228918
-0.0233902
-0.0238978
-0.0244148
-0.0249413
-0.0254776
-0.0260237
-0.0265799
-0.0271462
-0.0277232
-0.0283102
-0.0289088
-0.0295173
-0.0301383
-0.0307688
-0.0314131
-0.0320665
-0.0327346
-0.0334125
-0.0341041
-0.0348087
-0.0355231
-0.0362563
-0.0369943
-0.0377549
-0.0385212
-0.0393037
-0.0401039
-0.0409055
-0.0417342
-0.042563
-0.0433986
-0.0442424
-0.0450652
0.0222089
0.0152064
0.00502088
-0.00236147
-0.00513806
-0.005077
-0.00463037
-0.00463923
-0.00483316
-0.00491301
-0.0051197
-0.00555605
-0.00586808
-0.00609246
-0.00649816
-0.00685972
-0.00706761
-0.00739767
-0.00780796
-0.00809359
-0.00833927
-0.00863889
-0.00893145
-0.00916644
-0.00935398
-0.00954883
-0.00977005
-0.00996269
-0.0101288
-0.0103302
-0.0105487
-0.0107356
-0.0109233
-0.0111503
-0.011389
-0.0116141
-0.011844
-0.0120939
-0.0123546
-0.0126184
-0.0128891
-0.0131702
-0.0134604
-0.0137583
-0.0140643
-0.0143789
-0.0147021
-0.0150336
-0.0153736
-0.0157219
-0.0160786
-0.0164434
-0.0168163
-0.0171972
-0.0175861
-0.0179829
-0.0183877
-0.0188006
-0.0192215
-0.0196506
-0.020088
-0.0205337
-0.0209879
-0.0214507
-0.0219222
-0.0224025
-0.0228918
-0.0233902
-0.0238978
-0.0244148
-0.0249413
-0.0254776
-0.0260237
-0.0265799
-0.0271462
-0.0277232
-0.0283102
-0.0289088
-0.0295173
-0.0301383
-0.0307688
-0.0314131
-0.0320665
-0.0327346
-0.0334125
-0.0341041
-0.0348087
-0.0355231
-0.0362563
-0.0369943
-0.0377549
-0.0385212
-0.0393037
-0.0401039
-0.0409055
-0.0417342
-0.042563
-0.0433986
-0.0442424
-0.0450653
0.0211884
0.0150338
0.0052482
-0.00202773
-0.00493033
-0.00499384
-0.00459117
-0.00461111
-0.00481014
-0.00489537
-0.00510618
-0.00554495
-0.00585871
-0.0060842
-0.00649071
-0.00685327
-0.00706215
-0.007393
-0.00780373
-0.0080896
-0.00833569
-0.00863573
-0.00892858
-0.00916397
-0.00935198
-0.00954724
-0.00976883
-0.00996175
-0.010128
-0.0103295
-0.0105482
-0.0107352
-0.010923
-0.0111501
-0.0113888
-0.0116139
-0.0118439
-0.0120938
-0.0123545
-0.0126184
-0.0128891
-0.0131702
-0.0134603
-0.0137583
-0.0140643
-0.0143789
-0.0147021
-0.0150336
-0.0153736
-0.0157219
-0.0160786
-0.0164434
-0.0168163
-0.0171972
-0.0175861
-0.0179829
-0.0183877
-0.0188006
-0.0192215
-0.0196506
-0.020088
-0.0205337
-0.0209879
-0.0214507
-0.0219222
-0.0224025
-0.0228918
-0.0233902
-0.0238978
-0.0244148
-0.0249413
-0.0254776
-0.0260237
-0.0265799
-0.0271462
-0.0277232
-0.0283102
-0.0289088
-0.0295173
-0.0301383
-0.0307688
-0.0314131
-0.0320665
-0.0327346
-0.0334125
-0.0341041
-0.0348087
-0.0355231
-0.0362563
-0.0369943
-0.0377549
-0.0385212
-0.0393037
-0.0401039
-0.0409055
-0.0417342
-0.042563
-0.0433986
-0.0442425
-0.0450656
0.0201756
0.0148102
0.00547829
-0.00167297
-0.00469805
-0.00489699
-0.00454484
-0.00457544
-0.00477916
-0.00487203
-0.00508861
-0.00552967
-0.00584586
-0.00607326
-0.00647986
-0.00684327
-0.0070543
-0.00738625
-0.00779693
-0.00808317
-0.00833004
-0.00863041
-0.00892336
-0.0091593
-0.00934819
-0.00954419
-0.00976638
-0.00995982
-0.0101264
-0.0103282
-0.010547
-0.0107344
-0.0109225
-0.0111496
-0.0113884
-0.0116136
-0.0118436
-0.0120937
-0.0123544
-0.0126183
-0.012889
-0.0131702
-0.0134603
-0.0137583
-0.0140643
-0.0143789
-0.0147021
-0.0150336
-0.0153736
-0.0157219
-0.0160786
-0.0164434
-0.0168163
-0.0171972
-0.0175861
-0.0179829
-0.0183877
-0.0188006
-0.0192215
-0.0196506
-0.020088
-0.0205337
-0.0209879
-0.0214507
-0.0219222
-0.0224025
-0.0228918
-0.0233902
-0.0238978
-0.0244148
-0.0249413
-0.0254776
-0.0260237
-0.0265799
-0.0271462
-0.0277232
-0.0283102
-0.0289088
-0.0295173
-0.0301383
-0.0307688
-0.0314131
-0.0320665
-0.0327346
-0.0334125
-0.0341041
-0.0348087
-0.0355231
-0.0362563
-0.0369943
-0.0377549
-0.0385212
-0.0393037
-0.0401039
-0.0409055
-0.0417342
-0.042563
-0.0433987
-0.0442425
-0.0450658
0.0191741
0.014542
0.00570079
-0.00131328
-0.00445466
-0.00479483
-0.00449742
-0.00453699
-0.00474369
-0.00484494
-0.005068
-0.00551111
-0.00583033
-0.00606016
-0.00646587
-0.00682984
-0.00704404
-0.00737721
-0.00778722
-0.00807401
-0.00832211
-0.00862265
-0.00891536
-0.00915196
-0.00934217
-0.00953926
-0.00976225
-0.00995654
-0.0101238
-0.0103258
-0.0105449
-0.0107328
-0.0109214
-0.0111488
-0.0113875
-0.0116129
-0.0118432
-0.0120933
-0.0123541
-0.012618
-0.0128889
-0.0131701
-0.0134603
-0.0137582
-0.0140643
-0.0143789
-0.0147021
-0.0150336
-0.0153736
-0.0157219
-0.0160786
-0.0164434
-0.0168163
-0.0171972
-0.0175861
-0.0179829
-0.0183877
-0.0188006
-0.0192215
-0.0196506
-0.020088
-0.0205337
-0.0209879
-0.0214507
-0.0219222
-0.0224025
-0.0228918
-0.0233902
-0.0238978
-0.0244148
-0.0249413
-0.0254776
-0.0260237
-0.0265799
-0.0271462
-0.0277232
-0.0283102
-0.0289088
-0.0295173
-0.0301383
-0.0307688
-0.0314131
-0.0320665
-0.0327346
-0.0334125
-0.0341041
-0.0348087
-0.0355231
-0.0362563
-0.0369943
-0.0377549
-0.0385212
-0.0393037
-0.0401039
-0.0409055
-0.0417342
-0.0425631
-0.0433987
-0.0442426
-0.0450662
0.0181972
0.0142333
0.00590726
-0.000954468
-0.00420176
-0.00468732
-0.00444967
-0.00449755
-0.00470553
-0.00481506
-0.00504516
-0.00549053
-0.00581319
-0.00604568
-0.00644984
-0.00681409
-0.00703199
-0.00736629
-0.00777508
-0.0080625
-0.00831215
-0.00861271
-0.00890483
-0.0091421
-0.00933398
-0.00953242
-0.00975635
-0.00995179
-0.0101201
-0.0103224
-0.0105417
-0.0107304
-0.0109198
-0.0111474
-0.0113862
-0.0116118
-0.0118424
-0.0120928
-0.0123537
-0.0126176
-0.0128886
-0.0131699
-0.0134601
-0.0137581
-0.0140642
-0.0143789
-0.014702
-0.0150336
-0.0153736
-0.0157219
-0.0160786
-0.0164434
-0.0168163
-0.0171972
-0.0175861
-0.0179829
-0.0183877
-0.0188006
-0.0192215
-0.0196506
-0.020088
-0.0205337
-0.0209879
-0.0214507
-0.0219222
-0.0224025
-0.0228918
-0.0233902
-0.0238978
-0.0244148
-0.0249413
-0.0254776
-0.0260237
-0.0265799
-0.0271462
-0.0277232
-0.0283102
-0.0289088
-0.0295173
-0.0301383
-0.0307688
-0.0314131
-0.0320665
-0.0327346
-0.0334125
-0.0341041
-0.0348087
-0.0355231
-0.0362563
-0.0369943
-0.0377549
-0.0385212
-0.0393037
-0.0401039
-0.0409055
-0.0417342
-0.0425631
-0.0433987
-0.0442427
-0.0450665
0.0172531
0.0138834
0.00609064
-0.000597071
-0.00393621
-0.00457158
-0.0044012
-0.00445827
-0.00466562
-0.00478277
-0.00502048
-0.00546857
-0.00579489
-0.00603017
-0.00643257
-0.00679697
-0.00701877
-0.0073541
-0.00776131
-0.00804933
-0.00830071
-0.00860119
-0.00889251
-0.0091304
-0.00932411
-0.00952404
-0.00974897
-0.00994578
-0.0101153
-0.0103181
-0.0105376
-0.0107272
-0.0109177
-0.0111456
-0.0113844
-0.0116103
-0.0118414
-0.012092
-0.012353
-0.0126171
-0.0128882
-0.0131695
-0.0134599
-0.0137579
-0.0140641
-0.0143788
-0.014702
-0.0150336
-0.0153736
-0.0157219
-0.0160786
-0.0164434
-0.0168163
-0.0171972
-0.0175861
-0.0179829
-0.0183877
-0.0188006
-0.0192215
-0.0196506
-0.020088
-0.0205337
-0.0209879
-0.0214507
-0.0219222
-0.0224025
-0.0228918
-0.0233902
-0.0238978
-0.0244148
-0.0249413
-0.0254776
-0.0260237
-0.0265799
-0.0271462
-0.0277232
-0.0283102
-0.0289088
-0.0295173
-0.0301383
-0.0307688
-0.0314131
-0.0320665
-0.0327346
-0.0334125
-0.0341041
-0.0348087
-0.0355231
-0.0362563
-0.0369943
-0.0377549
-0.0385212
-0.0393038
-0.0401039
-0.0409055
-0.0417342
-0.0425631
-0.0433988
-0.0442429
-0.045067
0.016345
0.0134952
0.00624914
-0.000239926
-0.00365632
-0.00444672
-0.00435288
-0.00442065
-0.00462486
-0.00474836
-0.00499406
-0.00544535
-0.00577555
-0.00601383
-0.00641444
-0.00677886
-0.00700468
-0.0073411
-0.00774652
-0.00803507
-0.00828823
-0.00858863
-0.00887902
-0.00911751
-0.00931314
-0.00951463
-0.00974058
-0.00993887
-0.0101099
-0.010313
-0.0105328
-0.0107235
-0.0109151
-0.0111434
-0.0113822
-0.0116085
-0.01184
-0.0120909
-0.0123521
-0.0126163
-0.0128876
-0.0131691
-0.0134596
-0.0137577
-0.0140639
-0.0143787
-0.0147019
-0.0150335
-0.0153736
-0.0157219
-0.0160786
-0.0164434
-0.0168163
-0.0171972
-0.0175861
-0.0179829
-0.0183877
-0.0188006
-0.0192215
-0.0196506
-0.020088
-0.0205337
-0.0209879
-0.0214507
-0.0219222
-0.0224025
-0.0228918
-0.0233902
-0.0238978
-0.0244148
-0.0249413
-0.0254776
-0.0260237
-0.0265799
-0.0271462
-0.0277232
-0.0283102
-0.0289088
-0.0295173
-0.0301383
-0.0307688
-0.0314131
-0.0320665
-0.0327346
-0.0334125
-0.0341041
-0.0348087
-0.0355231
-0.0362563
-0.0369943
-0.0377549
-0.0385212
-0.0393038
-0.0401039
-0.0409055
-0.0417342
-0.0425631
-0.0433988
-0.044243
-0.0450674
0.015477
0.0130765
0.00638165
0.00011361
-0.00336431
-0.00431301
-0.00430502
-0.00438551
-0.00458385
-0.00471188
-0.00496571
-0.0054208
-0.00575527
-0.00599677
-0.00639556
-0.00675987
-0.00698984
-0.00732749
-0.00773104
-0.00802002
-0.00827501
-0.00857533
-0.00886476
-0.00910383
-0.00930144
-0.00950452
-0.00973152
-0.00993135
-0.0101038
-0.0103074
-0.0105274
-0.0107193
-0.0109122
-0.0111409
-0.0113797
-0.0116064
-0.0118385
-0.0120897
-0.012351
-0.0126155
-0.0128869