/*--------------------------------*- C++ -*----------------------------------*\
| =========                 |                                                 |
| \\      /  F ield         | OpenFOAM: The Open Source CFD Toolbox           |
|  \\    /   O peration     | Version:  2106                                  |
|   \\  /    A nd           | Website:  www.openfoam.com                      |
|    \\/     M anipulation  |                                                 |
\*---------------------------------------------------------------------------*/
FoamFile
{
    version     2.0;
    format      ascii;
    arch        "LSB;label=32;scalar=64";
    class       surfaceScalarField;
    location    "0.12";
    object      phi;
}
// * * * * * * * * * * * * * * * * * * * * * * * * * * * * * * * * * * * * * //

dimensions      [0 3 -1 0 0 0 0];

oriented        oriented;

internalField   nonuniform List<scalar> 
19000
(
1.19688e-06
-1.15854e-06
1.18353e-06
-2.41575e-07
1.17625e-06
1.11422e-06
1.17044e-06
1.94248e-07
1.18694e-06
-5.65293e-07
1.17215e-06
-3.74225e-07
1.17343e-06
4.2284e-07
1.16055e-06
3.40906e-07
1.17216e-06
-8.58094e-09
1.16596e-06
-3.20505e-07
1.16954e-06
-3.92812e-07
1.16199e-06
-1.75996e-07
1.17853e-06
1.99088e-07
1.14833e-06
1.07625e-07
1.15116e-06
1.5404e-07
1.15843e-06
1.54647e-07
1.16067e-06
-3.84677e-08
1.15374e-06
-1.07731e-07
1.15962e-06
-7.54434e-08
-2.36719e-07
1.10168e-06
1.25633e-06
-1.1906e-06
1.23979e-06
-2.25036e-07
1.22922e-06
1.12478e-06
1.22863e-06
1.94838e-07
1.24385e-06
-5.80509e-07
1.22953e-06
-3.59909e-07
1.22669e-06
4.25674e-07
1.22162e-06
3.45985e-07
1.22754e-06
-1.45071e-08
1.22464e-06
-3.17607e-07
1.22535e-06
-3.93518e-07
1.22117e-06
-1.71821e-07
1.22916e-06
1.91099e-07
1.21412e-06
1.22669e-07
1.20043e-06
1.67728e-07
1.22599e-06
1.29089e-07
1.21031e-06
-2.27874e-08
1.22361e-06
-1.21036e-07
1.20554e-06
-5.73668e-08
-2.18034e-07
1.18685e-06
1.31409e-06
-1.22191e-06
1.30363e-06
-2.14569e-07
1.28841e-06
1.14e-06
1.2912e-06
1.92047e-07
1.30182e-06
-5.91132e-07
1.29128e-06
-3.49368e-07
1.2839e-06
4.33057e-07
1.28697e-06
3.4291e-07
1.28653e-06
-1.40632e-08
1.28763e-06
-3.18702e-07
1.2823e-06
-3.88193e-07
1.28281e-06
-1.72332e-07
1.28405e-06
1.89863e-07
1.28086e-06
1.25859e-07
1.26312e-06
1.85468e-07
1.28342e-06
1.0879e-07
1.27469e-06
-1.40591e-08
1.27835e-06
-1.24701e-07
1.27227e-06
-5.12859e-08
-1.92071e-07
1.24631e-06
1.37024e-06
-1.24804e-06
1.37021e-06
-2.14548e-07
1.35452e-06
1.15569e-06
1.35706e-06
1.89507e-07
1.36007e-06
-5.94135e-07
1.355e-06
-3.44299e-07
1.34755e-06
4.40504e-07
1.35434e-06
3.36115e-07
1.34961e-06
-9.32757e-09
1.35108e-06
-3.20171e-07
1.34229e-06
-3.79407e-07
1.34381e-06
-1.73851e-07
1.345e-06
1.88674e-07
1.34598e-06
1.24875e-07
1.33463e-06
1.96821e-07
1.34427e-06
9.91533e-08
1.34152e-06
-1.13159e-08
1.33906e-06
-1.2224e-07
1.33532e-06
-4.75464e-08
-1.67358e-07
1.31061e-06
1.4258e-06
-1.26549e-06
1.43648e-06
-2.25225e-07
1.42566e-06
1.16652e-06
1.42445e-06
1.90718e-07
1.41942e-06
-5.89107e-07
1.41928e-06
-3.44154e-07
1.41671e-06
4.43068e-07
1.42314e-06
3.29685e-07
1.41628e-06
-2.46129e-09
1.4148e-06
-3.18697e-07
1.40538e-06
-3.6998e-07
1.40647e-06
-1.74949e-07
1.40985e-06
1.85297e-07
1.41276e-06
1.21962e-07
1.40771e-06
2.01871e-07
1.41144e-06
9.54277e-08
1.40845e-06
-8.3241e-09
1.40362e-06
-1.17412e-07
1.39889e-06
-4.28217e-08
-1.44645e-07
1.37618e-06
1.48313e-06
-1.27295e-06
1.50087e-06
-2.42965e-07
1.49875e-06
1.16864e-06
1.49277e-06
1.96691e-07
1.48137e-06
-5.77709e-07
1.48434e-06
-3.47118e-07
1.48859e-06
4.38818e-07
1.49335e-06
3.24919e-07
1.48551e-06
5.38756e-09
1.48042e-06
-3.13615e-07
1.471e-06
-3.60552e-07
1.47221e-06
-1.76165e-07
1.47728e-06
1.80223e-07
1.48164e-06
1.1761e-07
1.48059e-06
2.02916e-07
1.48186e-06
9.41589e-08
1.47735e-06
-3.80763e-09
1.47024e-06
-1.10302e-07
1.46518e-06
-3.7765e-08
-1.22562e-07
1.4431e-06
1.5446e-06
-1.27134e-06
1.56401e-06
-2.62368e-07
1.57141e-06
1.16124e-06
1.56254e-06
2.05562e-07
1.54713e-06
-5.62301e-07
1.55106e-06
-3.51046e-07
1.56082e-06
4.29055e-07
1.56474e-06
3.20994e-07
1.55676e-06
1.33725e-08
1.54918e-06
-3.06034e-07
1.53931e-06
-3.50681e-07
1.54087e-06
-1.7773e-07
1.54691e-06
1.74187e-07
1.55204e-06
1.12483e-07
1.55347e-06
2.01481e-07
1.55374e-06
9.3889e-08
1.54875e-06
1.1882e-09
1.53944e-06
-1.01001e-07
1.53458e-06
-3.29016e-08
-1.0059e-07
1.51261e-06
1.61167e-06
-1.26287e-06
1.62803e-06
-2.78728e-07
1.64319e-06
1.14607e-06
1.63465e-06
2.14107e-07
1.6173e-06
-5.44952e-07
1.62029e-06
-3.5404e-07
1.63296e-06
4.16386e-07
1.63738e-06
3.1658e-07
1.63025e-06
2.04997e-08
1.62166e-06
-2.97447e-07
1.61099e-06
-3.40006e-07
1.61231e-06
-1.7905e-07
1.6187e-06
1.67788e-07
1.62396e-06
1.07224e-07
1.62707e-06
1.98374e-07
1.62693e-06
9.40247e-08
1.62265e-06
5.46824e-09
1.61186e-06
-9.02067e-08
1.60746e-06
-2.85051e-08
-7.88544e-08
1.58573e-06
1.68458e-06
-1.24987e-06
1.69539e-06
-2.8954e-07
1.71557e-06
1.12589e-06
1.70998e-06
2.19691e-07
1.6921e-06
-5.27071e-07
1.69292e-06
-3.54857e-07
1.7063e-06
4.03008e-07
1.71207e-06
3.10802e-07
1.70661e-06
2.59669e-08
1.69811e-06
-2.8895e-07
1.68662e-06
-3.2851e-07
1.68688e-06
-1.79313e-07
1.69318e-06
1.61489e-07
1.69815e-06
1.02253e-07
1.70257e-06
1.93957e-07
1.70224e-06
9.4354e-08
1.69938e-06
8.32727e-09
1.68781e-06
-7.86385e-08
1.68405e-06
-2.475e-08
-5.78404e-08
1.66304e-06
1.7629e-06
-1.23405e-06
1.76799e-06
-2.94631e-07
1.79079e-06
1.1031e-06
1.78921e-06
2.21267e-07
1.77154e-06
-5.09399e-07
1.76979e-06
-3.53106e-07
1.78271e-06
3.90081e-07
1.79009e-06
3.03427e-07
1.78652e-06
2.95308e-08
1.7786e-06
-2.81024e-07
1.76651e-06
-3.16419e-07
1.76524e-06
-1.78048e-07
1.77125e-06
1.55482e-07
1.77569e-06
9.78066e-08
1.78127e-06
1.88379e-07
1.78074e-06
9.48823e-08
1.77947e-06
9.6039e-09
1.76757e-06
-6.67436e-08
1.76436e-06
-2.15399e-08
-3.82312e-08
1.74475e-06
1.84611e-06
-1.21641e-06
1.84679e-06
-2.95317e-07
1.87069e-06
1.0792e-06
1.87278e-06
2.19183e-07
1.85553e-06
-4.92151e-07
1.85152e-06
-3.49099e-07
1.86372e-06
3.77881e-07
1.87248e-06
2.94676e-07
1.87054e-06
3.14667e-08
1.86315e-06
-2.73636e-07
1.85077e-06
-3.04041e-07
1.84795e-06
-1.75223e-07
1.85376e-06
1.49668e-07
1.85756e-06
9.40141e-08
1.86421e-06
1.81723e-07
1.86336e-06
9.5738e-08
1.86343e-06
9.5288e-09
1.85146e-06
-5.47673e-08
1.84837e-06
-1.84542e-08
-2.06934e-08
1.83083e-06
1.93386e-06
-1.19743e-06
1.93189e-06
-2.93348e-07
1.95616e-06
1.05493e-06
1.96093e-06
2.1441e-07
1.94401e-06
-4.75231e-07
1.93838e-06
-3.4347e-07
1.95005e-06
3.66214e-07
1.95977e-06
2.84952e-07
1.95897e-06
3.22661e-08
1.95183e-06
-2.66495e-07
1.93946e-06
-2.91664e-07
1.9353e-06
-1.7107e-07
1.94119e-06
1.43778e-07
1.94425e-06
9.09586e-08
1.95189e-06
1.74078e-07
1.95058e-06
9.70543e-08
1.95156e-06
8.5454e-09
1.93973e-06
-4.29312e-08
1.93617e-06
-1.48967e-08
-5.69688e-09
1.92117e-06
2.02606e-06
-1.17731e-06
2.02292e-06
-2.90207e-07
2.04725e-06
1.03059e-06
2.05377e-06
2.07892e-07
2.03698e-06
-4.58437e-07
2.03033e-06
-3.3682e-07
2.04177e-06
3.54774e-07
2.05209e-06
2.74636e-07
2.05199e-06
3.23633e-08
2.04477e-06
-2.59274e-07
2.03262e-06
-2.79513e-07
2.0274e-06
-1.6585e-07
2.03364e-06
1.37535e-07
2.03591e-06
8.86915e-08
2.04442e-06
1.65565e-07
2.04262e-06
9.88575e-08
2.04398e-06
7.18028e-09
2.03259e-06
-3.15387e-08
2.02802e-06
-1.03309e-08
6.588e-09
2.01574e-06
2.12281e-06
-1.15611e-06
2.11947e-06
-2.8687e-07
2.14372e-06
1.00634e-06
2.15136e-06
2.00261e-07
2.13451e-06
-4.41596e-07
2.12725e-06
-3.29558e-07
2.1387e-06
3.43323e-07
2.14933e-06
2.64004e-07
2.14968e-06
3.20208e-08
2.14212e-06
-2.51719e-07
2.13036e-06
-2.67751e-07
2.12425e-06
-1.59737e-07
2.13104e-06
1.30745e-07
2.13251e-06
8.72168e-08
2.14172e-06
1.56356e-07
2.13955e-06
1.01031e-07
2.14078e-06
5.95121e-09
2.13018e-06
-2.09445e-08
2.12435e-06
-4.49704e-09
1.63352e-08
2.1146e-06
2.22424e-06
-1.13387e-06
2.22126e-06
-2.8388e-07
2.24534e-06
9.8225e-07
2.25376e-06
1.91842e-07
2.23677e-06
-4.24602e-07
2.22911e-06
-3.21902e-07
2.24071e-06
3.31724e-07
2.25148e-06
2.53236e-07
2.25216e-06
3.13426e-08
2.2441e-06
-2.43664e-07
2.23285e-06
-2.56502e-07
2.22593e-06
-1.52813e-07
2.23335e-06
1.23331e-07
2.23409e-06
8.64743e-08
2.24375e-06
1.46695e-07
2.24146e-06
1.03321e-07
2.24206e-06
5.34909e-09
2.2326e-06
-1.14838e-08
2.22556e-06
2.54026e-09
2.3995e-08
2.2179e-06
2.33058e-06
-1.11057e-06
2.32821e-06
-2.81509e-07
2.35205e-06
9.58405e-07
2.36113e-06
1.82765e-07
2.34394e-06
-4.07415e-07
2.33599e-06
-3.13946e-07
2.3478e-06
3.19908e-07
2.35859e-06
2.42452e-07
2.3596e-06
3.0332e-08
2.35094e-06
-2.35004e-07
2.34029e-06
-2.45853e-07
2.3326e-06
-1.45122e-07
2.34061e-06
1.15317e-07
2.34076e-06
8.63283e-08
2.35057e-06
1.36883e-07
2.34849e-06
1.05404e-07
2.34803e-06
5.80499e-09
2.33995e-06
-3.39889e-09
2.33198e-06
1.05009e-08
3.01304e-08
2.32585e-06
2.44203e-06
-1.08621e-06
2.44042e-06
-2.7989e-07
2.46394e-06
9.34878e-07
2.47364e-06
1.73067e-07
2.45626e-06
-3.90035e-07
2.44803e-06
-3.05716e-07
2.4601e-06
3.07836e-07
2.47081e-06
2.3175e-07
2.47219e-06
2.89429e-08
2.46286e-06
-2.25671e-07
2.45287e-06
-2.35866e-07
2.44447e-06
-1.36718e-07
2.45296e-06
1.06827e-07
2.45272e-06
8.65639e-08
2.46232e-06
1.27283e-07
2.46079e-06
1.06937e-07
2.45897e-06
7.62882e-09
2.45232e-06
3.24691e-09
2.44386e-06
1.89635e-08
3.53039e-08
2.43869e-06
2.55886e-06
-1.06077e-06
2.55806e-06
-2.79095e-07
2.5812e-06
9.11738e-07
2.59151e-06
1.62754e-07
2.57397e-06
-3.72491e-07
2.56546e-06
-2.9721e-07
2.57782e-06
2.95474e-07
2.58835e-06
2.21228e-07
2.59018e-06
2.71101e-08
2.58013e-06
-2.15623e-07
2.57083e-06
-2.26562e-07
2.56181e-06
-1.27701e-07
2.57057e-06
9.80647e-08
2.57023e-06
8.69014e-08
2.57924e-06
1.18274e-07
2.57854e-06
1.07646e-07
2.5753e-06
1.08634e-08
2.56987e-06
8.67943e-09
2.56142e-06
2.74155e-08
4.00013e-08
2.55672e-06
2.6813e-06
-1.03424e-06
2.68138e-06
-2.79172e-07
2.70407e-06
8.89043e-07
2.71499e-06
1.51839e-07
2.69733e-06
-3.54833e-07
2.68853e-06
-2.88404e-07
2.70122e-06
2.82781e-07
2.71145e-06
2.10992e-07
2.7138e-06
2.47664e-08
2.70302e-06
-2.04848e-07
2.69438e-06
-2.17917e-07
2.68491e-06
-1.18234e-07
2.69367e-06
8.93091e-08
2.69354e-06
8.70284e-08
2.70161e-06
1.10204e-07
2.70188e-06
1.07373e-07
2.69746e-06
1.52826e-08
2.69282e-06
1.33196e-08
2.68485e-06
3.53907e-08
4.45671e-08
2.68028e-06
2.80964e-06
-1.00662e-06
2.81063e-06
-2.80155e-07
2.83283e-06
8.66836e-07
2.84432e-06
1.40348e-07
2.82663e-06
-3.37134e-07
2.81748e-06
-2.79257e-07
2.83056e-06
2.69704e-07
2.84039e-06
2.01153e-07
2.84331e-06
2.18547e-08
2.83183e-06
-1.93367e-07
2.82376e-06
-2.09856e-07
2.81408e-06
-1.08547e-07
2.82249e-06
8.08931e-08
2.82289e-06
8.66364e-08
2.82975e-06
1.03343e-07
2.83099e-06
1.06124e-07
2.8258e-06
2.04745e-08
2.82152e-06
1.76024e-08
2.81433e-06
4.2576e-08
4.91559e-08
2.80975e-06
2.94417e-06
-9.77897e-07
2.94608e-06
-2.82064e-07
2.96777e-06
8.4515e-07
2.97979e-06
1.28326e-07
2.96214e-06
-3.19485e-07
2.9526e-06
-2.69713e-07
2.96612e-06
2.56178e-07
2.97545e-06
1.91825e-07
2.97897e-06
1.834e-08
2.96685e-06
-1.81249e-07
2.95923e-06
-2.02242e-07
2.94962e-06
-9.89325e-08
2.95733e-06
7.31795e-08
2.95851e-06
8.54583e-08
2.96402e-06
9.78361e-08
2.96605e-06
1.04088e-07
2.96056e-06
2.59705e-08
2.95633e-06
2.18269e-08
2.95008e-06
4.88325e-08
5.37681e-08
2.94546e-06
3.08519e-06
-9.48078e-07
3.08803e-06
-2.84913e-07
3.10918e-06
8.24002e-07
3.12167e-06
1.15843e-07
3.10418e-06
-3.02002e-07
3.09417e-06
-2.59701e-07
3.10822e-06
2.42131e-07
3.11693e-06
1.83116e-07
3.12105e-06
1.42224e-08
3.10842e-06
-1.68621e-07
3.10106e-06
-1.9488e-07
3.09184e-06
-8.97161e-08
3.09851e-06
6.65107e-08
3.10063e-06
8.33344e-08
3.10488e-06
9.35863e-08
3.1073e-06
1.01666e-07
3.10194e-06
3.13366e-08
3.09767e-06
2.60944e-08
3.0923e-06
5.41996e-08
5.82975e-08
3.08777e-06
3.23301e-06
-9.17173e-07
3.23679e-06
-2.88699e-07
3.2574e-06
8.03392e-07
3.27025e-06
1.0299e-07
3.25307e-06
-2.84822e-07
3.24251e-06
-2.49135e-07
3.25715e-06
2.27491e-07
3.26515e-06
1.75109e-07
3.26983e-06
9.55119e-09
3.25687e-06
-1.55668e-07
3.24952e-06
-1.87529e-07
3.24103e-06
-8.12304e-08
3.24638e-06
6.11651e-08
3.24943e-06
8.02836e-08
3.25275e-06
9.02686e-08
3.25512e-06
9.92995e-08
3.25015e-06
3.63051e-08
3.24591e-06
3.03297e-08
3.24131e-06
5.8802e-08
6.26204e-08
3.23699e-06
3.38796e-06
-8.85203e-07
3.39267e-06
-2.93411e-07
3.41276e-06
7.83307e-07
3.42586e-06
8.98881e-08
3.40915e-06
-2.68106e-07
3.39793e-06
-2.37917e-07
3.41322e-06
2.12196e-07
3.42048e-06
1.67851e-07
3.4256e-06
4.43372e-09
3.41257e-06
-1.42636e-07
3.40495e-06
-1.79908e-07
3.39748e-06
-7.37666e-08
3.40137e-06
5.72738e-08
3.40513e-06
7.65295e-08
3.40795e-06
8.74444e-08
3.40994e-06
9.73107e-08
3.40543e-06
4.08141e-08
3.40138e-06
3.4376e-08
3.39744e-06
6.27503e-08
6.66513e-08
3.39341e-06
3.5504e-06
-8.52197e-07
3.55601e-06
-2.99021e-07
3.57561e-06
7.63711e-07
3.58882e-06
7.6681e-08
3.57275e-06
-2.52037e-07
3.56078e-06
-2.25945e-07
3.57677e-06
1.96206e-07
3.58328e-06
1.6134e-07
3.58867e-06
-9.6143e-10
3.57586e-06
-1.29821e-07
3.56768e-06
-1.71725e-07
3.56144e-06
-6.75308e-08
3.56394e-06
5.47708e-08
3.568e-06
7.24752e-08
3.57077e-06
8.46688e-08
3.57228e-06
9.58073e-08
3.56806e-06
4.50277e-08
3.56441e-06
3.80291e-08
3.56105e-06
6.61111e-08
7.0349e-08
3.55735e-06
3.7207e-06
-8.18193e-07
3.72717e-06
-3.05486e-07
3.74633e-06
7.44552e-07
3.75946e-06
6.3544e-08
3.74424e-06
-2.36816e-07
3.73142e-06
-2.1312e-07
3.74811e-06
1.79514e-07
3.75394e-06
1.55507e-07
3.75937e-06
-6.39321e-09
3.74712e-06
-1.17565e-07
3.73811e-06
-1.62713e-07
3.73318e-06
-6.26008e-08
3.73455e-06
5.33946e-08
3.7384e-06
6.86237e-08
3.74148e-06
8.1588e-08
3.74258e-06
9.47074e-08
3.73843e-06
4.91804e-08
3.73528e-06
4.11815e-08
3.73253e-06
6.88587e-08
7.37105e-08
3.72917e-06
3.89924e-06
-7.83242e-07
3.9065e-06
-3.12748e-07
3.9253e-06
7.25753e-07
3.93816e-06
5.06768e-08
3.924e-06
-2.22656e-07
3.91024e-06
-1.99357e-07
3.92759e-06
1.62161e-07
3.93288e-06
1.50218e-07
3.93805e-06
-1.1561e-08
3.92671e-06
-1.06221e-07
3.91667e-06
-1.52676e-07
3.91296e-06
-5.88879e-08
3.91361e-06
5.27392e-08
3.91681e-06
6.54295e-08
3.92034e-06
7.8059e-08
3.92128e-06
9.37683e-08
3.91701e-06
5.34459e-08
3.91429e-06
4.39041e-08
3.91227e-06
7.08794e-08
7.67541e-08
3.90922e-06
4.08641e-06
-7.47407e-07
4.09439e-06
-3.20727e-07
4.11293e-06
7.07214e-07
4.1253e-06
3.83099e-08
4.11242e-06
-2.09779e-07
4.09766e-06
-1.84599e-07
4.11557e-06
1.44251e-07
4.12054e-06
1.45256e-07
4.12509e-06
-1.61095e-08
4.115e-06
-9.61326e-08
4.10384e-06
-1.41519e-07
4.10111e-06
-5.61561e-08
4.10152e-06
5.23278e-08
4.10373e-06
6.32243e-08
4.10761e-06
7.41753e-08
4.10873e-06
9.26494e-08
4.10431e-06
5.78634e-08
4.1018e-06
4.64129e-08
4.10061e-06
7.20695e-08
7.94445e-08
4.09792e-06
4.28266e-06
-7.10764e-07
4.29126e-06
-3.29324e-07
4.30966e-06
6.88807e-07
4.32127e-06
2.66979e-08
4.3099e-06
-1.98401e-07
4.29412e-06
-1.68825e-07
4.31242e-06
1.25952e-07
4.31734e-06
1.40337e-07
4.32089e-06
-1.96566e-08
4.31233e-06
-8.75739e-08
4.30014e-06
-1.29332e-07
4.29797e-06
-5.3985e-08
4.29863e-06
5.16713e-08
4.29971e-06
6.21419e-08
4.30363e-06
7.02512e-08
4.30526e-06
9.10188e-08
4.30085e-06
6.22768e-08
4.29827e-06
4.89946e-08
4.29789e-06
7.24453e-08
8.16363e-08
4.2957e-06
4.48841e-06
-6.73404e-07
4.4975e-06
-3.38413e-07
4.51594e-06
6.70373e-07
4.52652e-06
1.61194e-08
4.51684e-06
-1.88727e-07
4.50008e-06
-1.52068e-07
4.51853e-06
1.07509e-07
4.52375e-06
1.35117e-07
4.52591e-06
-2.18159e-08
4.51904e-06
-8.07109e-08
4.5061e-06
-1.1639e-07
4.50397e-06
-5.18538e-08
4.50526e-06
5.03809e-08
4.50534e-06
6.20645e-08
4.50884e-06
6.67457e-08
4.5112e-06
8.86637e-08
4.50709e-06
6.63851e-08
4.50422e-06
5.18627e-08
4.50447e-06
7.21946e-08
8.3119e-08
4.50299e-06
4.70415e-06
-6.35437e-07
4.71358e-06
-3.47842e-07
4.73222e-06
6.51728e-07
4.74148e-06
6.85662e-09
4.73368e-06
-1.80922e-07
4.71604e-06
-1.34426e-07
4.73431e-06
8.92402e-08
4.7402e-06
1.29223e-07
4.74066e-06
-2.22736e-08
4.73548e-06
-7.55289e-08
4.72224e-06
-1.03153e-07
4.71959e-06
-4.92046e-08
4.72174e-06
4.8235e-08
4.72113e-06
6.26769e-08
4.72384e-06
6.40312e-08
4.72684e-06
8.56601e-08
4.72341e-06
6.98192e-08
4.72024e-06
5.50358e-08
4.72079e-06
7.16358e-08
8.37598e-08
4.72015e-06
4.93035e-06
-5.96988e-07
4.93994e-06
-3.57434e-07
4.95901e-06
6.32662e-07
4.96666e-06
-8.00798e-10
4.96085e-06
-1.75112e-07
4.9425e-06
-1.16068e-07
4.9602e-06
7.15322e-08
4.96715e-06
1.22275e-07
4.96571e-06
-2.08295e-08
4.962e-06
-7.18176e-08
4.94904e-06
-9.0193e-08
4.94542e-06
-4.5586e-08
4.94838e-06
4.52686e-08
4.94756e-06
6.34985e-08
4.94925e-06
6.23471e-08
4.95265e-06
8.22534e-08
4.95014e-06
7.23348e-08
4.94685e-06
5.83255e-08
4.94741e-06
7.10728e-08
8.36156e-08
4.94756e-06
5.16753e-06
-5.58203e-07
5.17708e-06
-3.6698e-07
5.1968e-06
6.12939e-07
5.20257e-06
-6.57432e-09
5.19882e-06
-1.71357e-07
5.18e-06
-9.72488e-08
5.1967e-06
5.48334e-08
5.20502e-06
1.13951e-07
5.20168e-06
-1.74844e-08
5.199e-06
-6.91362e-08
5.18696e-06
-7.81552e-08
5.18209e-06
-4.0722e-08
5.18557e-06
4.1791e-08
5.18507e-06
6.39997e-08
5.18574e-06
6.16797e-08
5.18914e-06
7.88528e-08
5.18765e-06
7.38249e-08
5.18453e-06
6.14417e-08
5.18493e-06
7.06727e-08
8.29179e-08
5.18563e-06
5.41623e-06
-5.19245e-07
5.42549e-06
-3.76241e-07
5.44613e-06
5.92302e-07
5.44976e-06
-1.02098e-08
5.44805e-06
-1.69645e-07
5.4291e-06
-7.82998e-08
5.44432e-06
3.96159e-08
5.45426e-06
1.04014e-07
5.44919e-06
-1.24188e-08
5.44696e-06
-6.6908e-08
5.43644e-06
-6.76295e-08
5.43028e-06
-3.45653e-08
5.43379e-06
3.82775e-08
5.43406e-06
6.3737e-08
5.43392e-06
6.1819e-08
5.43691e-06
7.58561e-08
5.43637e-06
7.43666e-08
5.43373e-06
6.40844e-08
5.43394e-06
7.04666e-08
8.19028e-08
5.43495e-06
5.67701e-06
-4.80299e-07
5.68572e-06
-3.84948e-07
5.70753e-06
5.7049e-07
5.70882e-06
-1.15031e-08
5.70905e-06
-1.69869e-07
5.69038e-06
-5.96309e-08
5.70364e-06
2.63575e-08
5.71531e-06
9.23428e-08
5.70889e-06
-6.00513e-09
5.70645e-06
-6.44592e-08
5.69788e-06
-5.90681e-08
5.69069e-06
-2.73749e-08
5.69363e-06
3.53392e-08
5.6949e-06
6.24739e-08
5.69436e-06
6.23538e-08
5.69667e-06
7.35455e-08
5.69686e-06
7.41793e-08
5.69485e-06
6.60895e-08
5.695e-06
7.03241e-08
8.07222e-08
5.69618e-06
5.95046e-06
-4.41567e-07
5.95832e-06
-3.92804e-07
5.98156e-06
5.47247e-07
5.98037e-06
-1.03163e-08
5.98233e-06
-1.71827e-07
5.96442e-06
-4.17168e-08
5.97528e-06
1.55002e-08
5.98865e-06
7.89721e-08
5.98142e-06
1.22393e-09
5.97811e-06
-6.11513e-08
5.97167e-06
-5.26246e-08
5.964e-06
-1.97085e-08
5.9658e-06
3.35361e-08
5.96798e-06
6.02943e-08
5.96758e-06
6.27549e-08
5.96914e-06
7.19904e-08
5.96969e-06
7.36239e-08
5.96837e-06
6.74157e-08
5.96865e-06
7.00351e-08
7.94096e-08
5.96997e-06
6.23719e-06
-4.03272e-07
6.24388e-06
-3.99489e-07
6.26879e-06
5.22334e-07
6.26507e-06
-6.59579e-09
6.26846e-06
-1.75212e-07
6.25183e-06
-2.50929e-08
6.25991e-06
7.42644e-09
6.27477e-06
6.41058e-08
6.26738e-06
8.61345e-09
6.26267e-06
-5.64414e-08
6.25823e-06
-4.81852e-08
6.25078e-06
-1.22579e-08
6.25109e-06
3.323e-08
6.25383e-06
5.75576e-08
6.25405e-06
6.253e-08
6.25501e-06
7.10329e-08
6.25555e-06
7.30839e-08
6.25483e-06
6.81369e-08
6.25541e-06
6.9454e-08
7.78687e-08
6.25695e-06
6.53785e-06
-3.65649e-07
6.54302e-06
-4.04665e-07
6.56981e-06
4.95551e-07
6.5636e-06
-3.9136e-10
6.56801e-06
-1.79618e-07
6.55323e-06
-1.03148e-08
6.55825e-06
2.408e-09
6.57423e-06
4.8123e-08
6.5674e-06
1.54441e-08
6.56091e-06
-4.99541e-08
6.5581e-06
-4.53723e-08
6.55157e-06
-5.73006e-09
6.55032e-06
3.44839e-08
6.55307e-06
5.48057e-08
6.55422e-06
6.13834e-08
6.55491e-06
7.03344e-08
6.55519e-06
7.28036e-08
6.55487e-06
6.84624e-08
6.55575e-06
6.85738e-08
7.59244e-08
6.55769e-06
6.85309e-06
-3.28949e-07
6.85641e-06
-4.07986e-07
6.88521e-06
4.66756e-07
6.87669e-06
8.12857e-09
6.88161e-06
-1.8454e-07
6.86923e-06
2.06219e-09
6.87106e-06
5.75632e-10
6.88762e-06
3.15686e-08
6.88207e-06
2.09947e-08
6.87366e-06
-4.15494e-08
6.87184e-06
-4.35529e-08
6.86688e-06
-7.68458e-10
6.86429e-06
3.70733e-08
6.86647e-06
5.26248e-08
6.86853e-06
5.9326e-08
6.86944e-06
6.94247e-08
6.86944e-06
7.28064e-08
6.8692e-06
6.86968e-08
6.87027e-06
6.75047e-08
7.34839e-08
6.87271e-06
7.18361e-06
-2.93424e-07
7.18474e-06
-4.09115e-07
7.21561e-06
4.35891e-07
7.20508e-06
1.86587e-08
7.20994e-06
-1.89402e-07
7.20043e-06
1.15716e-08
7.19917e-06
1.833e-09
7.21558e-06
1.51558e-08
7.21195e-06
2.46287e-08
7.20177e-06
-3.13647e-08
7.20017e-06
-4.19582e-08
7.19719e-06
2.20771e-09
7.19377e-06
4.04949e-08
7.19489e-06
5.15101e-08
7.19757e-06
5.66405e-08
7.19916e-06
6.78411e-08
7.19901e-06
7.29549e-08
7.1986e-06
6.91068e-08
7.19971e-06
6.63924e-08
7.06982e-08
7.2025e-06
7.53013e-06
-2.59333e-07
7.52875e-06
-4.07731e-07
7.56166e-06
4.02985e-07
7.54954e-06
3.07753e-08
7.55372e-06
-1.93577e-07
7.54744e-06
1.78489e-08
7.54338e-06
5.88729e-09
7.55887e-06
-3.26456e-10
7.5576e-06
2.5895e-08
7.54607e-06
-1.98335e-08
7.54393e-06
-3.98172e-08
7.54298e-06
3.15308e-09
7.53947e-06
4.40056e-08
7.53923e-06
5.17476e-08
7.54207e-06
5.3808e-08
7.54457e-06
6.53381e-08
7.54461e-06
7.2915e-08
7.5439e-06
6.9813e-08
7.54488e-06
6.5416e-08
6.78764e-08
7.5477e-06
7.8934e-06
-2.26924e-07
7.88922e-06
-4.03553e-07
7.92403e-06
3.68182e-07
7.91087e-06
4.3933e-08
7.91372e-06
-1.96427e-07
7.91089e-06
2.06763e-08
7.90452e-06
1.22605e-08
7.91828e-06
-1.40873e-08
7.9196e-06
2.45748e-08
7.90739e-06
-7.62324e-09
7.90401e-06
-3.64387e-08
7.90487e-06
2.29526e-09
7.90203e-06
4.68481e-08
7.90044e-06
5.33289e-08
7.90286e-06
5.13881e-08
7.90621e-06
6.19892e-08
7.90692e-06
7.22112e-08
7.90595e-06
7.07807e-08
7.9066e-06
6.4767e-08
6.5229e-08
7.90925e-06
8.27419e-06
-1.96433e-07
8.267e-06
-3.96361e-07
8.30344e-06
3.31741e-07
8.28987e-06
5.75012e-08
8.29079e-06
-1.97343e-07
8.29144e-06
2.00271e-08
8.28341e-06
2.02881e-08
8.29471e-06
-2.53863e-08
8.29857e-06
2.07101e-08
8.28651e-06
4.4408e-09
8.28142e-06
-3.13515e-08
8.28357e-06
1.45335e-10
8.28203e-06
4.83864e-08
8.27943e-06
5.5938e-08
8.28092e-06
4.98895e-08
8.28478e-06
5.81279e-08
8.28657e-06
7.0431e-08
8.28555e-06
7.17938e-08
8.28572e-06
6.46012e-08
6.28316e-08
8.28812e-06
8.6733e-06
-1.6807e-07
8.66296e-06
-3.86022e-07
8.70066e-06
2.94043e-07
8.68737e-06
7.07838e-08
8.68582e-06
-1.95788e-07
8.68978e-06
1.60651e-08
8.6809e-06
2.91661e-08
8.68911e-06
-3.35922e-08
8.69522e-06
1.45981e-08
8.68421e-06
1.54476e-08
8.67723e-06
-2.43633e-08
8.6799e-06
-2.53308e-09
8.6801e-06
4.81916e-08
8.67701e-06
5.90317e-08
8.67728e-06
4.96177e-08
8.68116e-06
5.42484e-08
8.68415e-06
6.74408e-08
8.68354e-06
7.23992e-08
8.68313e-06
6.5017e-08
6.0734e-08
8.68522e-06
9.09156e-06
-1.42013e-07
9.07804e-06
-3.72498e-07
9.1165e-06
2.55583e-07
9.10423e-06
8.30558e-08
9.09979e-06
-1.91346e-07
9.10667e-06
9.1814e-09
9.09784e-06
3.79983e-08
9.10254e-06
-3.82985e-08
9.11033e-06
6.8154e-09
9.10124e-06
2.45344e-08
9.09246e-06
-1.55832e-08
9.09482e-06
-4.8934e-09
9.09688e-06
4.61296e-08
9.09398e-06
6.19359e-08
9.09299e-06
5.06029e-08
9.09634e-06
5.08973e-08
9.10032e-06
6.34655e-08
9.10071e-06
7.20052e-08
9.09975e-06
6.59819e-08
5.90417e-08
9.10144e-06
9.52984e-06
-1.18396e-07
9.51323e-06
-3.55883e-07
9.55185e-06
2.16962e-07
9.54128e-06
9.36212e-08
9.53374e-06
-1.83801e-07
9.54294e-06
-2.22911e-11
9.53502e-06
4.59188e-08
9.53613e-06
-3.9403e-08
9.54484e-06
-1.89817e-09
9.53826e-06
3.11168e-08
9.52814e-06
-5.46784e-09
9.52941e-06
-6.163e-09
9.53313e-06
4.24159e-08
9.53109e-06
6.39668e-08
9.52909e-06
5.26062e-08
9.53146e-06
4.85275e-08
9.53593e-06
5.89934e-08
9.53776e-06
7.01818e-08
9.53657e-06
6.71695e-08
5.79615e-08
9.53765e-06
9.98904e-06
-9.73048e-08
9.96956e-06
-3.36404e-07
1.00077e-05
1.78862e-07
9.99942e-06
1.01866e-07
9.98879e-06
-1.73173e-07
9.99952e-06
-1.07484e-08
9.9933e-06
5.21379e-08
9.99103e-06
-3.71314e-08
9.99972e-06
-1.05869e-08
9.996e-06
3.48276e-08
9.98526e-06
5.27425e-09
9.98486e-06
-5.76406e-09
9.98974e-06
3.75422e-08
9.98913e-06
6.45783e-08
9.98651e-06
5.52171e-08
9.98768e-06
4.73617e-08
9.99206e-06
5.46127e-08
9.99532e-06
6.69184e-08
9.99458e-06
6.79126e-08
5.77144e-08
9.99483e-06
1.04701e-05
-7.87677e-08
1.04481e-05
-3.14437e-07
1.0485e-05
1.42029e-07
1.04795e-05
1.07296e-07
1.04661e-05
-1.59712e-07
1.04774e-05
-2.20834e-08
1.04735e-05
5.60265e-08
1.04683e-05
-3.19259e-08
1.04761e-05
-1.83617e-08
1.04753e-05
3.5656e-08
1.04648e-05
1.57386e-08
1.04624e-05
-3.36292e-09
1.04678e-05
3.21803e-08
1.04688e-05
6.34982e-08
1.04662e-05
5.79007e-08
1.04662e-05
4.73381e-08
1.04699e-05
5.08722e-08
1.04742e-05
6.26352e-08
1.04747e-05
6.74614e-08
5.82801e-08
1.04741e-05
1.0974e-05
-6.27565e-08
1.09501e-05
-2.90481e-07
1.09848e-05
1.07231e-07
1.09826e-05
1.09571e-07
1.09667e-05
-1.43885e-07
1.09777e-05
-3.3083e-08
1.09766e-05
5.72128e-08
1.09691e-05
-2.45037e-08
1.09752e-05
-2.44107e-08
1.09769e-05
3.39146e-08
1.09676e-05
2.50409e-08
1.09633e-05
1.00172e-09
1.09684e-05
2.70806e-08
1.09711e-05
6.07588e-08
1.09689e-05
6.0081e-08
1.09681e-05
4.8189e-08
1.09708e-05
4.81243e-08
1.09755e-05
5.79945e-08
1.09775e-05
6.54228e-08
5.9174e-08
1.09766e-05
1.15018e-05
-4.91816e-08
1.14764e-05
-2.6513e-07
1.15085e-05
7.51772e-08
1.15095e-05
1.08573e-07
1.14919e-05
-1.26338e-07
1.15017e-05
-4.2876e-08
1.15033e-05
5.55985e-08
1.14945e-05
-1.56978e-08
1.14983e-05
-2.81528e-08
1.15021e-05
3.01081e-08
1.14946e-05
3.25663e-08
1.14888e-05
6.81657e-09
1.14928e-05
2.30282e-08
1.14969e-05
5.66576e-08
1.14957e-05
6.12483e-08
1.14944e-05
4.95688e-08
1.14961e-05
4.64248e-08
1.15004e-05
5.36412e-08
1.15039e-05
6.1984e-08
5.95764e-08
1.15034e-05
1.20545e-05
-3.79029e-08
1.20284e-05
-2.39023e-07
1.20571e-05
4.64895e-08
1.20613e-05
1.04382e-07
1.20428e-05
-1.07835e-07
1.20507e-05
-5.0733e-08
1.20549e-05
5.13983e-08
1.20456e-05
-6.43599e-09
1.20468e-05
-2.93108e-08
1.20519e-05
2.50079e-08
1.20466e-05
3.78172e-08
1.204e-05
1.34665e-08
1.20425e-05
2.05374e-08
1.20474e-05
5.16812e-08
1.20476e-05
6.10919e-08
1.20461e-05
5.10961e-08
1.20469e-05
4.55893e-08
1.20505e-05
5.00186e-08
1.20547e-05
5.77783e-08
5.87804e-08
1.20555e-05
1.26334e-05
-2.87295e-08
1.26072e-05
-2.12809e-07
1.26321e-05
2.1635e-08
1.26391e-05
9.73096e-08
1.26205e-05
-8.92126e-08
1.26259e-05
-5.61316e-08
1.26322e-05
4.50925e-08
1.26234e-05
2.38749e-09
1.2622e-05
-2.79223e-08
1.26276e-05
1.94282e-08
1.26248e-05
4.06462e-08
1.2618e-05
2.02083e-08
1.26187e-05
1.97984e-08
1.2624e-05
4.64474e-08
1.26255e-05
5.95618e-08
1.26242e-05
5.23679e-08
1.26245e-05
4.53507e-08
1.26272e-05
4.7268e-08
1.26315e-05
5.35305e-08
5.66001e-08
1.26337e-05
1.32396e-05
-2.14357e-08
1.32139e-05
-1.87103e-07
1.32347e-05
9.02274e-10
1.32441e-05
8.78583e-08
1.32262e-05
-7.12862e-08
1.32289e-05
-5.88139e-08
1.32366e-05
3.73774e-08
1.3229e-05
9.95757e-09
1.32254e-05
-2.43075e-08
1.32306e-05
1.41889e-08
1.32301e-05
4.11917e-08
1.3224e-05
2.63358e-08
1.32231e-05
2.06511e-08
1.3228e-05
4.15918e-08
1.32307e-05
5.68403e-08
1.32301e-05
5.30107e-08
1.32299e-05
4.54794e-08
1.32319e-05
4.52658e-08
1.32357e-05
4.97622e-08
5.34068e-08
1.32389e-05
1.38745e-05
-1.57715e-08
1.38498e-05
-1.6245e-07
1.38664e-05
-1.56152e-08
1.38776e-05
7.66629e-08
1.3861e-05
-5.47717e-08
1.3861e-05
-5.87906e-08
1.38694e-05
2.89907e-08
1.38636e-05
1.57834e-08
1.38583e-05
-1.90507e-08
1.38626e-05
9.93355e-09
1.38639e-05
3.98637e-08
1.3859e-05
3.12855e-08
1.38569e-05
2.26799e-08
1.38609e-05
3.76186e-08
1.38645e-05
5.32858e-08
1.38647e-05
5.2783e-08
1.38644e-05
4.57444e-08
1.38659e-05
4.37907e-08
1.3869e-05
4.66702e-08
4.98326e-08
1.38726e-05
1.45394e-05
-1.14783e-08
1.45162e-05
-1.39303e-07
1.45286e-05
-2.80194e-08
1.45409e-05
6.44356e-08
1.45263e-05
-4.0229e-08
1.45238e-05
-5.6318e-08
1.45322e-05
2.06624e-08
1.45283e-05
1.96496e-08
1.45221e-05
-1.28466e-08
1.4525e-05
7.04927e-09
1.45276e-05
3.72409e-08
1.45242e-05
3.47262e-08
1.45215e-05
2.53461e-08
1.45243e-05
3.47795e-08
1.45283e-05
4.93514e-08
1.45294e-05
5.16218e-08
1.45293e-05
4.58817e-08
1.45304e-05
4.2685e-08
1.45329e-05
4.41752e-08
4.64178e-08
1.45363e-05
1.52357e-05
-8.2988e-09
1.52144e-05
-1.1801e-07
1.5223e-05
-3.65803e-08
1.52355e-05
5.18971e-08
1.52233e-05
-2.8024e-08
1.52188e-05
-5.18383e-08
1.52265e-05
1.30317e-08
1.52245e-05
2.15989e-08
1.52181e-05
-6.39759e-09
1.52194e-05
5.65951e-09
1.52227e-05
3.39401e-08
1.52209e-05
3.65882e-08
1.52181e-05
2.8105e-08
1.52198e-05
3.30571e-08
1.52237e-05
4.54906e-08
1.52257e-05
4.96439e-08
1.52259e-05
4.56395e-08
1.52268e-05
4.18375e-08
1.52289e-05
4.20979e-08
4.34307e-08
1.52318e-05
1.5965e-05
-5.99176e-09
1.59458e-05
-9.8801e-08
1.59509e-05
-4.17121e-08
1.59631e-05
3.97097e-08
1.59534e-05
-1.83e-08
1.59475e-05
-4.59254e-08
1.59539e-05
6.58878e-09
1.59537e-05
2.18889e-08
1.59476e-05
-3.12888e-10
1.59476e-05
5.64169e-09
1.5951e-05
3.05255e-08
1.59506e-05
3.70243e-08
1.59482e-05
3.05021e-08
1.5949e-05
3.22344e-08
1.59524e-05
4.20427e-08
1.5955e-05
4.7103e-08
1.59558e-05
4.48641e-08
1.59565e-05
4.10928e-08
1.59583e-05
4.0317e-08
4.08844e-08
1.59608e-05
1.6729e-05
-4.34055e-09
1.67119e-05
-8.17894e-08
1.67142e-05
-4.39322e-08
1.67254e-05
2.84358e-08
1.67181e-05
-1.10045e-08
1.67114e-05
-3.91881e-08
1.67164e-05
1.63556e-09
1.67173e-05
2.09102e-08
1.67121e-05
4.94934e-09
1.6711e-05
6.70841e-09
1.67141e-05
2.74279e-08
1.67148e-05
3.6328e-08
1.67131e-05
3.22308e-08
1.67133e-05
3.20112e-08
1.67162e-05
3.91694e-08
1.6719e-05
4.43028e-08
1.67203e-05
4.35375e-08
1.67211e-05
4.02705e-08
1.67227e-05
3.87582e-08
3.8681e-08
1.67249e-05
1.75292e-05
-3.16019e-09
1.75144e-05
-6.6984e-08
1.75142e-05
-4.38038e-08
1.75242e-05
1.84918e-08
1.75191e-05
-5.90755e-09
1.75121e-05
-3.22054e-08
1.75155e-05
-1.73095e-09
1.75173e-05
1.91137e-08
1.75131e-05
9.11994e-09
1.75113e-05
8.48462e-09
1.75138e-05
2.49068e-08
1.75153e-05
3.48563e-08
1.75144e-05
3.31565e-08
1.75143e-05
3.2072e-08
1.75166e-05
3.68775e-08
1.75194e-05
4.15046e-08
1.75212e-05
4.17618e-08
1.75222e-05
3.9233e-08
1.75237e-05
3.73361e-08
3.67229e-08
1.75256e-05
1.83675e-05
-2.3015e-09
1.83548e-05
-5.43053e-08
1.83529e-05
-4.18936e-08
1.83612e-05
1.01458e-08
1.8358e-05
-2.67416e-09
1.83513e-05
-2.54591e-08
1.83531e-05
-3.59345e-09
1.83553e-05
1.69367e-08
1.83523e-05
1.2128e-08
1.83502e-05
1.05744e-08
1.83521e-05
2.30478e-08
1.8354e-05
3.29623e-08
1.83538e-05
3.32964e-08
1.83538e-05
3.213e-08
1.83556e-05
3.50834e-08
1.83582e-05
3.88768e-08
1.83602e-05
3.97003e-08
1.83616e-05
3.79209e-08
1.83629e-05
3.59559e-08
3.49341e-08
1.83647e-05
1.92457e-05
-1.65042e-09
1.9235e-05
-4.36036e-08
1.92319e-05