/*--------------------------------*- C++ -*----------------------------------*\
| =========                 |                                                 |
| \\      /  F ield         | OpenFOAM: The Open Source CFD Toolbox           |
|  \\    /   O peration     | Version:  2106                                  |
|   \\  /    A nd           | Website:  www.openfoam.com                      |
|    \\/     M anipulation  |                                                 |
\*---------------------------------------------------------------------------*/
FoamFile
{
    version     2.0;
    format      ascii;
    arch        "LSB;label=32;scalar=64";
    class       volScalarField;
    location    "0.555";
    object      p;
}
// * * * * * * * * * * * * * * * * * * * * * * * * * * * * * * * * * * * * * //

dimensions      [0 2 -2 0 0 0 0];

internalField   nonuniform List<scalar> 
9600
(
3.34403e-11
-0.00126371
-0.000993366
-7.7846e-05
-0.00155526
-0.00106391
-0.000488633
-0.000164513
-6.74813e-05
-0.000940388
-0.000186525
-0.000831166
-0.00193322
-0.00161839
-0.00202066
-0.00104441
-0.00124348
-7.37626e-05
0.00110441
0.00360825
-2.93839e-07
-0.00126535
-0.000989577
-8.88772e-05
-0.00155284
-0.00105459
-0.000494145
-0.000168756
-6.61313e-05
-0.0009468
-0.000175151
-0.00084598
-0.00191859
-0.00163625
-0.00200265
-0.00105318
-0.00122536
-0.000121892
0.00112878
0.00332802
-1.45016e-06
-0.00126738
-0.000986534
-0.000101815
-0.00154554
-0.0010438
-0.000502811
-0.000174792
-6.50691e-05
-0.000955189
-0.000168128
-0.000867159
-0.00189794
-0.00164918
-0.00197867
-0.00106598
-0.00120751
-0.00018016
0.00113726
0.00298529
-3.6996e-06
-0.00126992
-0.000985294
-0.000113966
-0.00153443
-0.00103443
-0.000513469
-0.000183219
-6.50928e-05
-0.000966176
-0.00016866
-0.000893164
-0.00187319
-0.00165972
-0.00195548
-0.00108045
-0.00119363
-0.000240324
0.0011183
0.00266215
-7.10637e-06
-0.00127317
-0.00098496
-0.000124776
-0.00151981
-0.00102683
-0.000526471
-0.000193941
-6.58179e-05
-0.000979437
-0.00017293
-0.000922913
-0.00184517
-0.0016705
-0.00193162
-0.00109672
-0.00118244
-0.000303291
0.00107501
0.00236427
-1.15439e-05
-0.00127706
-0.000985039
-0.000133907
-0.00150249
-0.00102171
-0.000541597
-0.000206087
-6.67126e-05
-0.000993771
-0.000179484
-0.000954858
-0.0018142
-0.00168107
-0.00190686
-0.00111496
-0.00117331
-0.00036899
0.00101034
0.00208721
-1.67502e-05
-0.00128147
-0.000985243
-0.000141423
-0.00148349
-0.00101904
-0.000558149
-0.000219104
-6.76152e-05
-0.00100867
-0.000188064
-0.000987563
-0.00178101
-0.001691
-0.00188284
-0.00113311
-0.00116768
-0.000436629
0.000925278
0.00182583
-2.24551e-05
-0.00128631
-0.000985298
-0.00014775
-0.00146345
-0.00101825
-0.000575573
-0.000232719
-6.86759e-05
-0.00102401
-0.000198366
-0.00102043
-0.00174641
-0.00170019
-0.00186035
-0.00114921
-0.00116852
-0.000504287
0.00082109
0.00157557
-2.84695e-05
-0.00129149
-0.000985003
-0.000153394
-0.00144255
-0.00101875
-0.000593601
-0.000246771
-7.01069e-05
-0.00103968
-0.000210139
-0.00105323
-0.00171105
-0.00170849
-0.00183969
-0.00116254
-0.00117795
-0.000569824
0.000699087
0.0013316
-3.47101e-05
-0.00129696
-0.000984246
-0.000158763
-0.00142073
-0.00102008
-0.00061214
-0.000261157
-7.20717e-05
-0.00105564
-0.000223113
-0.00108579
-0.00167587
-0.0017152
-0.00182163
-0.00117281
-0.00119648
-0.000632392
0.000560747
0.00109006
-4.11723e-05
-0.00130267
-0.00098297
-0.000164132
-0.00139796
-0.00102196
-0.000631153
-0.000275824
-7.46898e-05
-0.00107186
-0.000236977
-0.00111791
-0.00164183
-0.00171942
-0.00180747
-0.00117931
-0.00122425
-0.000693337
0.000409177
0.00084838
-4.78857e-05
-0.00130862
-0.000981167
-0.000169665
-0.00137423
-0.00102423
-0.000650625
-0.000290762
-7.80463e-05
-0.00108828
-0.000251567
-0.00114931
-0.00160991
-0.00172041
-0.00179828
-0.00118143
-0.0012616
-0.000755144
0.000249219
0.000604406
-5.48825e-05
-0.0013148
-0.000978863
-0.000175448
-0.00134961
-0.00102678
-0.000670548
-0.00030597
-8.22037e-05
-0.00110482
-0.000266947
-0.00117958
-0.00158107
-0.00171743
-0.00179489
-0.00117932
-0.00130829
-0.000821028
8.60867e-05
0.000356547
-6.21842e-05
-0.00132121
-0.000976115
-0.00018151
-0.00132423
-0.00102957
-0.00069093
-0.000321437
-8.72128e-05
-0.00112141
-0.000283359
-0.00120814
-0.00155622
-0.00170981
-0.00179795
-0.00117391
-0.00136293
-0.000894983
-7.57167e-05
0.000104684
-6.98002e-05
-0.00132789
-0.000972995
-0.00018785
-0.00129818
-0.00103256
-0.000711797
-0.000337139
-9.31391e-05
-0.00113795
-0.000301174
-0.00123434
-0.00153621
-0.00169704
-0.00180781
-0.00116684
-0.00142301
-0.000981194
-0.000233187
-0.000149521
-7.77298e-05
-0.00133483
-0.000969582
-0.000194456
-0.00127158
-0.0010357
-0.000733197
-0.000353014
-0.000100091
-0.00115427
-0.000320859
-0.00125757
-0.00152175
-0.00167898
-0.00182437
-0.00116047
-0.00148523
-0.00108289
-0.000385397
-0.000402772
-8.5965e-05
-0.00134206
-0.000965962
-0.000201305
-0.00124456
-0.00103892
-0.000755201
-0.000368967
-0.000108217
-0.00117017
-0.000342864
-0.0012773
-0.00151344
-0.00165587
-0.00184686
-0.00115786
-0.0015464
-0.00120168
-0.000533226
-0.000650525
-9.44914e-05
-0.00134961
-0.000962225
-0.000208358
-0.00121725
-0.00104213
-0.000777894
-0.000384903
-0.000117697
-0.00118543
-0.000367546
-0.00129312
-0.00151169
-0.00162835
-0.00187372
-0.00116234
-0.00160427
-0.00133771
-0.000678705
-0.000887749
-0.000103288
-0.00135751
-0.000958464
-0.000215563
-0.00118978
-0.00104522
-0.000801382
-0.000400684
-0.000128712
-0.00119991
-0.000395215
-0.00130472
-0.00151668
-0.00159769
-0.00190251
-0.00117686
-0.00165785
-0.00148922
-0.000824962
-0.00110952
-0.000112323
-0.00136579
-0.000954783
-0.000222858
-0.00116227
-0.00104804
-0.000825811
-0.000416117
-0.000141443
-0.00121351
-0.000426104
-0.00131202
-0.00152819
-0.00156563
-0.00193068
-0.00120354
-0.00170706
-0.00165301
-0.000975665
-0.00131176
-0.000121556
-0.00137448
-0.000951299
-0.00023017
-0.00113488
-0.00105043
-0.000851357
-0.000431027
-0.000156014
-0.0012262
-0.000460302
-0.00131537
-0.00154549
-0.00153395
-0.00195726
-0.00124396
-0.00175231
-0.00182516
-0.00113446
-0.00149205
-0.000130938
-0.00138364
-0.000948141
-0.000237413
-0.00110776
-0.00105217
-0.000878216
-0.000445303
-0.00017242
-0.00123812
-0.000497639
-0.00131541
-0.00156722
-0.00150402
-0.00198138
-0.00129893
-0.00179453
-0.0020017
-0.00130478
-0.00164989
-0.000140408
-0.00139329
-0.000945465
-0.000244464
-0.0010811
-0.00105304
-0.000906572
-0.000458874
-0.000190613
-0.00124951
-0.000537629
-0.00131307
-0.00159178
-0.00147706
-0.00200307
-0.00136867
-0.00183488
-0.00217817
-0.00148937
-0.00178698
-0.000149893
-0.00140346
-0.000943474
-0.000251181
-0.00105508
-0.00105279
-0.000936561
-0.00047176
-0.000210388
-0.00126089
-0.00057958
-0.00130914
-0.00161804
-0.00145441
-0.00202273
-0.00145332
-0.0018749
-0.00234924
-0.00168969
-0.00190779
-0.000159316
-0.00141419
-0.000942408
-0.000257394
-0.0010299
-0.00105119
-0.000968242
-0.000484132
-0.000231275
-0.00127305
-0.000622692
-0.00130386
-0.00164531
-0.00143724
-0.0020401
-0.0015531
-0.00191707
-0.00250909
-0.00190554
-0.00201965
-0.000168584
-0.0014255
-0.000942556
-0.000262874
-0.00100581
-0.00104798
-0.00100156
-0.000496376
-0.000252573
-0.00128683
-0.000666387
-0.00129724
-0.00167731
-0.00142662
-0.00205457
-0.00166773
-0.001965
-0.00265196
-0.00213413
-0.00213182
-0.00017761
-0.00143737
-0.00094425
-0.000267375
-0.000983081
-0.00104298
-0.00103636
-0.000509107
-0.000273293
-0.00130306
-0.000710615
-0.00128905
-0.0017133
-0.00142398
-0.00206487
-0.0017955
-0.00202299
-0.00277352
-0.00236977
-0.00225403
-0.000186318
-0.00144975
-0.000947907
-0.000270605
-0.000961946
-0.00103618
-0.00107223
-0.000523112
-0.0002924
-0.00132239
-0.000755818
-0.00127866
-0.00175313
-0.00143111
-0.00206917
-0.0019331
-0.00209547
-0.00287217
-0.00260414
-0.00239483
-0.000194628
-0.00146256
-0.000954009
-0.000272233
-0.000942631
-0.00102764
-0.00110841
-0.000539468
-0.000308753
-0.0013449
-0.000803184
-0.00126541
-0.00179669
-0.00145024
-0.0020665
-0.00207586
-0.00218659
-0.00295007
-0.00282739
-0.00255904
-0.00020248
-0.00147566
-0.000963108
-0.00027193
-0.000925298
-0.00101751
-0.00114394
-0.000559486
-0.000321306
-0.0013701
-0.000854632
-0.00124844
-0.00184293
-0.00148445
-0.00205743
-0.00221773
-0.00229914
-0.00301338
-0.00302969
-0.00274551
-0.000209823
-0.00148884
-0.000975903
-0.000269362
-0.000909866
-0.00100623
-0.00117768
-0.00058454
-0.000329787
-0.00139672
-0.000912258
-0.00122792
-0.00188955
-0.00153646
-0.00204449
-0.00235171
-0.00243312
-0.00307028
-0.00320348
-0.00294629
-0.000216642
-0.0015018
-0.000993139
-0.00026435
-0.000896048
-0.000994548
-0.00120812
-0.000615863
-0.000334556
-0.00142265
-0.000978144
-0.00120515
-0.00193304
-0.00160777
-0.00203185
-0.00247076
-0.0025851
-0.00313021
-0.00334586
-0.00314792
-0.000222977
-0.00151415
-0.00101552
-0.000256861
-0.00088338
-0.000983498
-0.00123352
-0.00065406
-0.000336743
-0.00144552
-0.0010536
-0.00118219
-0.00197002
-0.00169805
-0.00202508
-0.00256974
-0.00274847
-0.003202
-0.00346055
-0.00333647
-0.000228903
-0.00152542
-0.00104371
-0.000246955
-0.000871157
-0.000974366
-0.00125218
-0.000699092
-0.000338569
-0.00146248
-0.00113921
-0.00116422
-0.00199684
-0.00180469
-0.00203098
-0.00264757
-0.00291529
-0.00329102
-0.0035562
-0.00350265
-0.000234558
-0.00153501
-0.0010782
-0.000234655
-0.000858418
-0.00096877
-0.00126293
-0.00074984
-0.000343212
-0.00147081
-0.00123484
-0.00115551
-0.0020104
-0.00192266
-0.00205475
-0.00270653
-0.00307797
-0.00339752
-0.00364186
-0.00364531
-0.00024015
-0.00154229
-0.00111934
-0.00022146
-0.000843874
-0.000968486
-0.00126523
-0.000804094
-0.000354337
-0.00146994
-0.00133846
-0.00116127
-0.00200731
-0.00204444
-0.00209854
-0.00275009
-0.00323056
-0.00351929
-0.00372391
-0.00376831
-0.000245969
-0.00154659
-0.00116728
-0.000209581
-0.000825852
-0.00097476
-0.00125899
-0.000858696
-0.000375386
-0.00146072
-0.00144454
-0.00118577
-0.00199552
-0.00216304
-0.00216302
-0.00278241
-0.00336775
-0.0036544
-0.00380635
-0.00387409
-0.000252374
-0.0015472
-0.00122182
-0.000200115
-0.000802586
-0.00098796
-0.0012457
-0.000909848
-0.000408499
-0.00144512
-0.00154781
-0.00123025
-0.00197808
-0.00227315
-0.00224781
-0.0028093
-0.00348379
-0.00379971
-0.00389428
-0.00396315
-0.000259795
-0.00154339
-0.00128232
-0.000195364
-0.000772655
-0.00100785
-0.00122909
-0.000953968
-0.000454002
-0.00142724
-0.00164428
-0.00129406
-0.00196069
-0.00237071
-0.00235019
-0.00283811
-0.00357467
-0.00394799
-0.00399417
-0.00403772
-0.000268763
-0.00153451
-0.00134752
-0.000198152
-0.000735284
-0.00103314
-0.00121246
-0.000988209
-0.000510173
-0.00139373
-0.00173075
-0.00137256
-0.00194729
-0.00245408
-0.00246546
-0.0028757
-0.00364134
-0.004089
-0.00410937
-0.00410362
-0.000279925
-0.00151997
-0.00141544
-0.000211352
-0.000690445
-0.0010621
-0.00120321
-0.0010109
-0.000573719
-0.00138938
-0.00180703
-0.00146038
-0.00193971
-0.00252309
-0.00258854
-0.00292645
-0.0036892
-0.00421409
-0.00423756
-0.00416867
-0.000294072
-0.00149919
-0.0014839
-0.000237776
-0.000639173
-0.00109199
-0.00120248
-0.00102204
-0.000639478
-0.00139587
-0.00187579
-0.00155468
-0.00193944
-0.00257699
-0.00271384
-0.00299253
-0.00372511
-0.00431828
-0.00437278
-0.00424039
-0.00031199
-0.00147166
-0.00155044
-0.000280031
-0.000583546
-0.0011157
-0.00121278
-0.00102439
-0.000701872
-0.00141372
-0.00194192
-0.00165415
-0.00194814
-0.00261568
-0.00283503
-0.00307393
-0.00375612
-0.00439946
-0.0045078
-0.00432551
-0.000334132
-0.00143723
-0.00161251
-0.00033953
-0.000526563
-0.00113153
-0.00123521
-0.00102342
-0.000756341
-0.00144001
-0.00200717
-0.00175779
-0.00196691
-0.00264181
-0.00294686
-0.00316736
-0.00378776
-0.00445776
-0.00463425
-0.00442811
-0.000360669
-0.00139692
-0.00166725
-0.000416172
-0.000472376
-0.00113706
-0.00126915
-0.00102514
-0.000801075
-0.00146992
-0.0020725
-0.00186498
-0.00199693
-0.00265879
-0.0030465
-0.00326769
-0.00382312
-0.00449665
-0.00474371
-0.00454529
-0.000391697
-0.00134788
-0.0017125
-0.000508435
-0.000425836
-0.00113088
-0.00131212
-0.00103424
-0.000835866
-0.00149889
-0.00213643
-0.00197456
-0.00203862
-0.00267033
-0.00313206
-0.00337023
-0.00386315
-0.00452176
-0.00483168
-0.00466724
-0.000427311
-0.00130162
-0.00174609
-0.000613401
-0.000391293
-0.00111339
-0.00135978
-0.00105458
-0.000864774
-0.00152503
-0.00219723
-0.0020837
-0.00209029
-0.00268057
-0.00320388
-0.00347221
-0.00390791
-0.00453642
-0.00489719
-0.00478199
-0.000467349
-0.00125525
-0.00176624
-0.000726991
-0.000373425
-0.0010864
-0.00140715
-0.001087
-0.000892083
-0.00154734
-0.0022541
-0.00219008
-0.00214902
-0.00269076
-0.00326456
-0.00357248
-0.00395817
-0.00454155
-0.00494044
-0.00488089
-0.000511329
-0.00121091
-0.00177197
-0.000843915
-0.000376068
-0.00105263
-0.00145037
-0.0011304
-0.000920021
-0.00156649
-0.00230604
-0.0022927
-0.00221098
-0.00269918
-0.00331527
-0.00367103
-0.00401588
-0.00453883
-0.00496072
-0.00496002
-0.000558524
-0.0011705
-0.00176343
-0.000959517
-0.000400924
-0.00101981
-0.001488
-0.00118182
-0.000950083
-0.00158344
-0.00235495
-0.00239101
-0.00227324
-0.00270384
-0.00335357
-0.00376718
-0.00408412
-0.00453389
-0.00495539
-0.00501599
-0.000607996
-0.00113567
-0.00174176
-0.00106987
-0.000448408
-0.00099216
-0.00151946
-0.00124005
-0.0009822
-0.00159765
-0.00240351
-0.00248584
-0.00233388
-0.00270124
-0.00337676
-0.00385735
-0.00416535
-0.00453611
-0.0049253
-0.00504193
-0.000658813
-0.00110748
-0.00170968
-0.00117075
-0.000515649
-0.000973635
-0.00154589
-0.00130401
-0.00101677
-0.00160784
-0.00245207
-0.00258321
-0.00239395
-0.00268725
-0.00338031
-0.00393526
-0.00425761
-0.00455525
-0.00488104
-0.00502944
-0.000710142
-0.00108655
-0.00167081
-0.00126014
-0.000597616
-0.000966868
-0.00156946
-0.00137283
-0.00105549
-0.00161094
-0.00249748
-0.00268828
-0.00245865
-0.00266173
-0.00335628
-0.00399455
-0.00435528
-0.00459741
-0.00483879
-0.0049781
-0.000761222
-0.00107302
-0.00162881
-0.00133684
-0.000689283
-0.00097351
-0.00159269
-0.00144665
-0.00109944
-0.00160516
-0.00253625
-0.00280224
-0.00253838
-0.00263031
-0.00329729
-0.00402391
-0.00444988
-0.00466236
-0.00481472
-0.00490311
-0.000811389
-0.00106657
-0.00158733
-0.00140106
-0.000785932
-0.000992923
-0.00161729
-0.00152651
-0.00115145
-0.00159092
-0.00255952
-0.00292199
-0.00264268
-0.00260299
-0.0032047
-0.00400773
-0.00452943
-0.00474436
-0.00481893
-0.0048263
-0.00086037
-0.00106687
-0.001549
-0.00145411
-0.000883964
-0.00102289
-0.00164425
-0.00161274
-0.00121519
-0.00157174
-0.00255808
-0.00304073
-0.0027785
-0.00259713
-0.00308645
-0.00393495
-0.00457576
-0.00483213
-0.00485259
-0.00476924
-0.000908137
-0.00107317
-0.00151453
-0.00149843
-0.000981149
-0.00106058
-0.0016733
-0.00170555
-0.00129301
-0.00155217
-0.00253043
-0.00314114
-0.00294084
-0.00263369
-0.00295682
-0.00380247
-0.00456816
-0.00491104
-0.00491115
-0.00474516
-0.000954719
-0.0010846
-0.00148477
-0.00153633
-0.00107652
-0.00110366
-0.0017018
-0.00180415
-0.00138822
-0.00153816
-0.00247919
-0.00320741
-0.00311627
-0.00272604
-0.00284738
-0.00361893
-0.0044875
-0.00496016
-0.00498463
-0.0047588
-0.00100035
-0.00110062
-0.00146002
-0.00156926
-0.0011705
-0.00115132
-0.00172656
-0.00190587
-0.0015036
-0.00153788
-0.00240717
-0.00323222
-0.00328348
-0.00286678
-0.00279093
-0.00340782
-0.00432385
-0.00495114
-0.00505871
-0.00480859
-0.00104517
-0.00112091
-0.00144023
-0.00159846
-0.00126403
-0.00120324
-0.00174531
-0.00200524
-0.00163867
-0.0015595
-0.00232206
-0.00321272
-0.00341948
-0.00304059
-0.00280341
-0.00321437
-0.00409325
-0.00485557
-0.00510645
-0.00488393
-0.00108919
-0.00114538
-0.00142554
-0.00162377
-0.00135737
-0.00126096
-0.00175717
-0.00209444
-0.00179017
-0.00161045
-0.0022358
-0.00315287
-0.00350881
-0.00322349
-0.00288223
-0.00307562
-0.00383115
-0.00466819
-0.00509063
-0.00496401
-0.00113245
-0.00117403
-0.00141626
-0.0016449
-0.00144966
-0.00132729
-0.0017639
-0.00216568
-0.0019518
-0.00169687
-0.00216059
-0.00305813
-0.00354717
-0.00338606
-0.00301048
-0.00301106
-0.00358773
-0.00441479
-0.00498215
-0.00500871
-0.00117488
-0.00120679
-0.00141302
-0.00166169
-0.00153951
-0.0014037
-0.0017693
-0.00221494
-0.00211117
-0.00181866
-0.00211183
-0.00293772
-0.00353428
-0.00351334
-0.00316387
-0.0030199
-0.00339539
-0.00413367
-0.00478467
-0.00497681
-0.00121649
-0.00124347
-0.00141667
-0.00167457
-0.00162478
-0.00148985
-0.0017792
-0.00224256
-0.00225451
-0.00196815
-0.00210397
-0.00281
-0.00347174
-0.00359624
-0.00331567
-0.00308523
-0.00327018
-0.00386451
-0.00452364
-0.00485037
-0.00125733
-0.0012837
-0.00142802
-0.00168463
-0.00170245
-0.00158359
-0.00179976
-0.0022523
-0.00237143
-0.0021338
-0.00214264
-0.00269757
-0.00336852
-0.00362461
-0.00344658
-0.00318559
-0.00321119
-0.00363298
-0.00423261
-0.00464273
-0.00129759
-0.00132682
-0.00144751
-0.00169359
-0.00177049
-0.00168167
-0.00183462
-0.0022509
-0.002457
-0.00229915
-0.00222374
-0.00261714
-0.00324397
-0.00359898
-0.00353734
-0.00329526
-0.00320574
-0.00345445
-0.00394417
-0.00437676
-0.00133755
-0.00137199
-0.00147509
-0.00170347
-0.001828
-0.00178009
-0.00188461
-0.00224777
-0.00251232
-0.00244739
-0.00233781
-0.00258023
-0.00311836
-0.00352945
-0.00357619
-0.00338803
-0.00323589
-0.00333263
-0.00368389
-0.00408296
-0.00137753
-0.00141827
-0.00151017
-0.00171665
-0.00187535
-0.00187415
-0.0019479
-0.00225128
-0.00254351
-0.00256736
-0.00246877
-0.00259139
-0.0030096
-0.00342825
-0.0035659
-0.00344514
-0.00327573
-0.00325797
-0.00346725
-0.00379077
-0.00141796
-0.00146478
-0.0015514
-0.00173519
-0.00191415
-0.00195979
-0.00202069
-0.00226634
-0.00255875
-0.00265625
-0.00259642
-0.0026421
-0.00293569
-0.00331209
-0.00351255
-0.00346193
-0.00330174
-0.00321202
-0.0032962
-0.00352191
-0.00145919
-0.00151091
-0.00159701
-0.00176027
-0.00194665
-0.00203431
-0.00209836
-0.00229472
-0.00256718
-0.00271743
-0.00270726
-0.0027167
-0.00290526
-0.00320358
-0.00342348
-0.00343889
-0.00330371
-0.00317395
-0.00316079
-0.00328638
-0.00150137
-0.00155631
-0.00164481
-0.00179192
-0.00197577
-0.00209685
-0.00217563
-0.00233572
-0.00257651
-0.00275622
-0.00279594
-0.00279735
-0.00290939
-0.00312292
-0.00331616
-0.00337648
-0.00327781
-0.0031297
-0.00304854
-0.00308698
-0.00154445
-0.00160087
-0.00169271
-0.00182901
-0.00200463
-0.00214831
-0.0022473
-0.00238579
-0.00259225
-0.00277901
-0.0028606
-0.00287133
-0.0029332
-0.00307474
-0.00321429
-0.00328187
-0.00322048
-0.00307394
-0.00295176
-0.00292471
-0.001588
-0.00164462
-0.00173916
-0.00186963
-0.00203541
-0.0021911
-0.00230968
-0.00243973
-0.00261668
-0.00279386
-0.00290299
-0.00293179
-0.00296207
-0.00304785
-0.00313264
-0.00317298
-0.00313285
-0.00300358
-0.00286675
-0.00280031
-0.00163126
-0.00168747
-0.00178338
-0.00191142
-0.00206859
-0.00222793
-0.00236173
-0.00249201
-0.00264808
-0.00280819
-0.00292766
-0.00297573
-0.002988
-0.00302897
-0.00306995
-0.00307008
-0.00302686
-0.00291975
-0.00279178
-0.00271284
-0.00167327
-0.00172902
-0.00182509
-0.00195219
-0.00210318
-0.00226147
-0.00240468
-0.00253824
-0.00268174
-0.00282512
-0.00294146
-0.00300349
-0.00301021
-0.00301349
-0.00301813
-0.00298283
-0.00292045
-0.00282902
-0.00272217
-0.00265162
-0.00171299
-0.00176846
-0.00186403
-0.00199043
-0.00213736
-0.00229318
-0.00244067
-0.00257715
-0.00271307
-0.00284295
-0.00294962
-0.00301691
-0.00302841
-0.00300593
-0.00297774
-0.00291596
-0.00282821
-0.0027367
-0.00264899
-0.00259573
-0.00174932
-0.00180479
-0.00189961
-0.00202504
-0.00216949
-0.00232277
-0.00247139
-0.00260941
-0.0027403
-0.00285979
-0.00295438
-0.00301654
-0.00303472
-0.0030061
-0.0029591
-0.00288552
-0.002779
-0.0026694
-0.00257723
-0.00252919
-0.0017811
-0.00183667
-0.00193087
-0.00205517
-0.00219791
-0.002349
-0.00249709
-0.00263545
-0.00276336
-0.00287642
-0.00296202
-0.00301127
-0.00302024
-0.00298131
-0.00291621
-0.0028396
-0.00274614
-0.00265519
-0.00258841
-0.00256437
-0.00180753
-0.00186309
-0.00195652
-0.00207915
-0.00221997
-0.00236932
-0.00251585
-0.00265319
-0.00277854
-0.002887
-0.00296932
-0.00301496
-0.00302343
-0.00298781
-0.00291346
-0.00281854
-0.00270812
-0.00259613
-0.00251098
-0.00247989
-0.00182838
-0.00188599
-0.00198132
-0.00210456
-0.002245
-0.00239427
-0.00254077
-0.0026774
-0.00280097
-0.00290582
-0.00298409
-0.00302473
-0.00302622
-0.0029879
-0.00291254
-0.00281478
-0.00270687
-0.00260051
-0.00252002
-0.00249273
0.00630467
0.00179493
-0.00534593
-0.010804
-0.0121454
-0.0111042
-0.00973125
-0.00861946
-0.00786184
-0.00739403
-0.00708699
-0.00694089
-0.00691402
-0.0068068
-0.00657744
-0.00636319
-0.00618727
-0.00600641
-0.00584971
-0.00572473
-0.00558776
-0.00543564
-0.00531001
-0.00521992
-0.0051341
-0.00504379
-0.00495895
-0.00488453
-0.00481888
-0.00475156
-0.0046689
-0.00457244
-0.00447697
-0.00438477
-0.00429396
-0.0042115
-0.00414137
-0.00411172
-0.0041249
-0.00411594
-0.00406214
-0.00399019
-0.00389949
-0.00380114
-0.00372946
-0.00366933
-0.00358073
-0.00347435
-0.0033874
-0.00330973
-0.00321628
-0.00310243
-0.00296871
-0.00284324
-0.00274109
-0.00261832
-0.00245958
-0.00231463
-0.00217937
-0.00201744
-0.00184208
-0.00167667
-0.00150771
-0.00132372
-0.00113719
-0.000946696
-0.000751089
-0.000546696
-0.00034156
-0.000130143
8.67688e-05
0.000305905
0.000527514
0.000750816
0.000983842
0.00121962
0.00146491
0.0017148
0.00196841
0.00222594
0.00248263
0.00274781
0.00301364
0.00328745
0.00356678
0.00384936
0.00414265
0.00443521
0.00473991
0.00504444
0.00535968
0.00567698
0.00600325
0.00633619
0.00667355
0.00702294
0.00738562
0.00775308
0.00810966
0.00851217
0.00567932
0.00166372
-0.00525316
-0.0106612
-0.0120623
-0.0110661
-0.00970885
-0.00860361
-0.0078495
-0.00738387
-0.00707806
-0.00693304
-0.00690763
-0.00680164
-0.00657295
-0.00635922
-0.00618378
-0.00600317
-0.00584668
-0.00572198
-0.00558523
-0.00543322
-0.00530768
-0.00521773
-0.00513205
-0.00504183
-0.00495707
-0.00488273
-0.00481718
-0.00474997
-0.00466741
-0.00457102
-0.00447563
-0.00438352
-0.00429279
-0.00421041
-0.00414033
-0.00411072
-0.00412399
-0.00411514
-0.00406139
-0.00398949
-0.00389884
-0.00380051
-0.00372885
-0.00366879
-0.00358025
-0.00347389
-0.00338695
-0.00330932
-0.00321591
-0.0031021
-0.0029684
-0.00284294
-0.00274082
-0.0026181
-0.00245937
-0.00231443
-0.0021792
-0.00201729
-0.00184194
-0.00167655
-0.0015076
-0.00132362
-0.0011371
-0.000946618
-0.00075102
-0.000546635
-0.000341505
-0.000130096
8.68114e-05
0.000305943
0.000527548
0.000750845
0.000983867
0.00121964
0.00146493
0.00171481
0.00196843
0.00222595
0.00248264
0.00274781
0.00301365
0.00328745
0.00356678
0.00384936
0.00414265
0.00443521
0.00473991
0.00504444
0.00535968
0.00567698
0.00600325
0.00633619
0.00667355
0.00702294
0.00738562
0.00775309
0.00810969
0.00851219
0.00506233
0.00152196
-0.00506544
-0.0103882
-0.0119123
-0.0110088
-0.00968082
-0.00858427
-0.00783484
-0.00737258
-0.00706885
-0.00692483
-0.00690022
-0.00679515
-0.00656745
-0.0063548
-0.00618021
-0.00600003
-0.00584381
-0.00571942
-0.00558291
-0.00543104
-0.00530563
-0.00521582
-0.00513025
-0.00504012
-0.00495545
-0.00488118
-0.0048157
-0.00474858
-0.0046661
-0.00456977
-0.00447444
-0.0043824
-0.00429172
-0.0042094
-0.00413936
-0.0041098
-0.0041232
-0.00411445
-0.00406073
-0.00398887
-0.00389827
-0.00379994
-0.00372832
-0.00366831
-0.00357982
-0.00347346
-0.00338655
-0.00330897
-0.00321558
-0.00310181
-0.00296812
-0.00284267
-0.00274059
-0.0026179
-0.00245918
-0.00231425
-0.00217905
-0.00201716
-0.00184181
-0.00167643
-0.0015075
-0.00132354
-0.00113702
-0.000946548
-0.000750958
-0.000546579
-0.000341455
-0.000130054
8.68508e-05
0.000305979
0.00052758
0.000750871
0.000983889
0.00121966
0.00146495
0.00171483
0.00196844
0.00222597
0.00248264
0.00274782
0.00301366
0.00328745
0.00356679
0.00384936
0.00414265
0.00443522
0.00473991
0.00504444
0.00535968
0.00567698
0.00600325
0.00633619
0.00667355
0.00702294
0.00738562
0.0077531
0.00810972
0.00851226
0.00447941
0.00138383
-0.00482056
-0.0100333
-0.0116986
-0.0109221
-0.00963726
-0.00855461
-0.00781294
-0.00735665
-0.0070573
-0.00691508
-0.00689041
-0.0067855
-0.00655909
-0.00634827
-0.0061752
-0.00599592
-0.0058402
-0.00571622
-0.00558015
-0.00542865
-0.00530347
-0.00521379
-0.00512831
-0.00503832
-0.00495379
-0.00487961
-0.00481419
-0.00474715
-0.00466474
-0.00456847
-0.00447317
-0.00438116
-0.0042905
-0.00420825
-0.00413828
-0.00410879
-0.00412233
-0.00411368
-0.00405999
-0.00398818
-0.00389763
-0.00379932
-0.00372772
-0.00366778
-0.00357932
-0.00347298
-0.00338612
-0.00330858
-0.00321522
-0.00310147
-0.0029678
-0.00284236
-0.00274032
-0.00261768
-0.00245895
-0.00231404
-0.00217888
-0.00201701
-0.00184166
-0.0016763
-0.00150739
-0.00132343
-0.00113693
-0.000946467
-0.000750886
-0.000546513
-0.000341396
-0.000130004
8.68972e-05
0.00030602
0.000527617
0.000750901
0.000983915
0.00121968
0.00146497
0.00171484
0.00196846
0.00222598
0.00248266
0.00274783
0.00301366
0.00328746
0.00356679
0.00384937
0.00414266
0.00443522
0.00473991
0.00504444
0.00535968
0.00567698
0.00600325
0.00633619
0.00667355
0.00702294
0.00738562
0.00775311
0.00810975
0.00851236
0.00391297
0.00122989
-0.00456436
-0.00965199
-0.0114579
-0.0108209
-0.00958542
-0.00851749
-0.00778405
-0.00733521
-0.00704246
-0.00690299
-0.00687735
-0.00677182
-0.0065471
-0.0063389
-0.00616804
-0.00599024
-0.00583529
-0.00571179
-0.00557644
-0.00542577
-0.00530105
-0.00521143
-0.00512598
-0.00503617
-0.00495189
-0.00487786
-0.00481251
-0.00474555
-0.00466327
-0.00456709
-0.00447179
-0.0043797
-0.004289
-0.0042068
-0.00413695
-0.00410758
-0.00412126
-0.00411268
-0.004059
-0.00398727
-0.00389683
-0.00379857
-0.00372699
-0.00366708
-0.00357867
-0.00347239
-0.00338559
-0.00330808
-0.00321473
-0.00310102
-0.00296739
-0.00284196
-0.00273996
-0.00261736
-0.00245865
-0.00231376
-0.00217865
-0.00201679
-0.00184145
-0.00167612
-0.00150723
-0.00132329
-0.0011368
-0.000946356
-0.000750787
-0.000546422
-0.000341316
-0.000129937
8.69606e-05
0.000306076
0.000527668
0.000750941
0.000983951
0.00121971
0.00146499
0.00171487
0.00196848
0.002226
0.00248267
0.00274784
0.00301367
0.00328747
0.0035668
0.00384937
0.00414266
0.00443522
0.00473992
0.00504444
0.00535969
0.00567698
0.00600325
0.00633619
0.00667354
0.00702294
0.00738561
0.00775311
0.00810978
0.0085125
0.00335814
0.00104736
-0.00431781
-0.00926238
-0.0112022
-0.010713
-0.00953172
-0.0084775
-0.00775092
-0.00730968
-0.00702471
-0.00688865
-0.00686151
-0.00675491
-0.00653223
-0.00632713
-0.00615891
-0.005983
-0.00582892
-0.00570587
-0.00557155
-0.00542226
-0.0052983
-0.00520869
-0.00512316
-0.00503355
-0.00494958
-0.00487575
-0.00481047
-0.00474364
-0.00466163
-0.00456569
-0.00447042
-0.00437814
-0.00428723
-0.00420503
-0.00413531
-0.00410609
-0.00411987
-0.00411131
-0.00405764
-0.00398602
-0.00389577
-0.00379763
-0.00372603
-0.00366608
-0.00357775
-0.00347163
-0.00338492
-0.0033074
-0.00321403
-0.00310038
-0.00296683
-0.00284142
-0.00273944
-0.00261689
-0.00245821
-0.00231337
-0.00217831
-0.00201647
-0.00184115
-0.00167586
-0.00150701
-0.00132308
-0.00113662
-0.000946193
-0.00075064
-0.000546288
-0.000341199
-0.000129836
8.7053e-05
0.000306158
0.000527741
0.000751002
0.000984004
0.00121976
0.00146503
0.00171491
0.00196851
0.00222603
0.00248269
0.00274786
0.00301369
0.00328748
0.00356681
0.00384938
0.00414267
0.00443523
0.00473992
0.00504445
0.00535969
0.00567699
0.00600325
0.00633619
0.00667354
0.00702293
0.0073856
0.00775309
0.00810981
0.00851269
0.00281767
0.000832668
-0.00408816
-0.00886706
-0.0109311
-0.0105979
-0.00947702
-0.00843609
-0.00771489
-0.00728105
-0.00700452
-0.00687242
-0.00684378
-0.00673608
-0.00651571
-0.00631402
-0.00614862
-0.00597471
-0.00582141
-0.00569864
-0.00556555
-0.00541811
-0.0052952
-0.00520561
-0.00511992
-0.00503048
-0.00494681
-0.0048731
-0.00480782
-0.00474114
-0.00465961
-0.0045642
-0.0044691
-0.0043766
-0.00428538
-0.0042031
-0.0041335
-0.00410435
-0.00411808
-0.00410944
-0.00405573
-0.00398428
-0.00389438
-0.00379646
-0.00372476
-0.00366466
-0.00357644
-0.0034706
-0.00338405
-0.00330647
-0.00321303
-0.00309947
-0.00296606
-0.00284067
-0.00273868
-0.00261618
-0.00245759
-0.00231282
-0.00217779
-0.00201598
-0.00184072
-0.00167548
-0.00150666
-0.00132276
-0.00113634
-0.00094595
-0.000750418
-0.000546086
-0.000341021
-0.000129681
8.71922e-05
0.000306281
0.000527851
0.000751095
0.000984085
0.00121983
0.0014651
0.00171497
0.00196856
0.00222608
0.00248273
0.0027479
0.00301372
0.0032875
0.00356683
0.00384939
0.00414269
0.00443524
0.00473993
0.00504445
0.00535969
0.00567699
0.00600325
0.00633619
0.00667353
0.00702292
0.00738559
0.00775306
0.00810983
0.00851292
0.00229692
0.000590084
-0.00387681
-0.00846508
-0.0106421
-0.0104737
-0.00942133
-0.00839427
-0.00767688
-0.00724988
-0.00698219
-0.00685466
-0.00682484
-0.00671614
-0.00649826
-0.00630019
-0.00613772
-0.00596581
-0.00581315
-0.00569053
-0.00555874
-0.00541346
-0.00529181
-0.00520224
-0.00511637
-0.00502711
-0.00494368
-0.00486995
-0.00480447
-0.00473788
-0.00465697
-0.00456236
-0.00446769
-0.0043751
-0.0042836
-0.00420125
-0.00413179
-0.00410256
-0.00411595
-0.00410701
-0.00405318
-0.00398192
-0.00389256
-0.00379501
-0.00372314
-0.00366272
-0.00357463
-0.00346923
-0.00338289
-0.00330519
-0.00321162
-0.0030982
-0.00296501
-0.00283965
-0.00273758
-0.00261514
-0.00245672
-0.00231204
-0.00217702
-0.00201526
-0.0018401
-0.00167492
-0.00150614
-0.00132229
-0.00113594
-0.000945591
-0.000750089
-0.000545787
-0.000340756
-0.000129449
8.74005e-05
0.000306465
0.000528016
0.000751234
0.000984205
0.00121994
0.00146519
0.00171506
0.00196864
0.00222615
0.00248279
0.00274795
0.00301377
0.00328754
0.00356687
0.00384942
0.00414271
0.00443525
0.00473994
0.00504446
0.0053597
0.005677
0.00600325
0.00633619
0.00667352
0.0070229
0.00738557
0.007753
0.00810985
0.00851321
0.0018027
0.000328412
-0.00368477
-0.00805887
-0.0103358
-0.0103403
-0.00936542
-0.00835331
-0.00763761
-0.00721627
-0.00695775
-0.00683558
-0.006805
-0.0066954
-0.0064801
-0.00628579
-0.00612635
-0.00595646
-0.00580439
-0.00568185
-0.00555142
-0.00540845
-0.00528819
-0.00519866
-0.00511263
-0.00502357
-0.00494036
-0.00486646
-0.00480057
-0.00473389
-0.00465362
-0.00456
-0.00446599
-0.00437351