/*--------------------------------*- C++ -*----------------------------------*\
| =========                 |                                                 |
| \\      /  F ield         | OpenFOAM: The Open Source CFD Toolbox           |
|  \\    /   O peration     | Version:  2106                                  |
|   \\  /    A nd           | Website:  www.openfoam.com                      |
|    \\/     M anipulation  |                                                 |
\*---------------------------------------------------------------------------*/
FoamFile
{
    version     2.0;
    format      ascii;
    arch        "LSB;label=32;scalar=64";
    class       volScalarField;
    location    "0.525";
    object      p;
}
// * * * * * * * * * * * * * * * * * * * * * * * * * * * * * * * * * * * * * //

dimensions      [0 2 -2 0 0 0 0];

internalField   nonuniform List<scalar> 
9600
(
-1.87989e-13
0.00124567
0.00230147
0.000820996
0.00190748
0.00190293
0.00220503
0.00272295
0.00186708
0.00291898
0.00333347
0.00465151
0.00501175
0.00536138
0.00657755
0.00811205
0.0094774
0.0110563
0.0151524
0.0196051
1.09306e-06
0.00124453
0.00230156
0.000838928
0.00190668
0.0018968
0.00221778
0.00271401
0.0018707
0.00292236
0.00333196
0.00465114
0.00501103
0.00536326
0.00657959
0.00809688
0.00949061
0.011015
0.0152596
0.0192066
2.03098e-06
0.00124268
0.00230277
0.000856772
0.00190384
0.00188953
0.00223174
0.00270137
0.0018812
0.00292797
0.00332981
0.00464953
0.00500963
0.00536898
0.00657834
0.00808222
0.00949322
0.010967
0.0152971
0.0186299
2.37569e-06
0.0012405
0.00230508
0.000873842
0.00189982
0.0018808
0.00224204
0.00268801
0.00189678
0.00293529
0.00332574
0.00464634
0.0050074
0.005376
0.00657548
0.008065
0.00948847
0.0109207
0.0152566
0.0181293
2.24235e-06
0.00123798
0.00230845
0.000890289
0.00189482
0.00187007
0.00225083
0.00267439
0.00191564
0.00294254
0.00331988
0.00464128
0.00500509
0.00538178
0.0065726
0.00804283
0.00948294
0.0108657
0.0151868
0.0176788
1.70862e-06
0.00123515
0.0023128
0.000906371
0.00188902
0.0018581
0.00225943
0.0026602
0.0019366
0.00294902
0.00331328
0.00463463
0.00500319
0.00538553
0.0065702
0.00801699
0.00947426
0.010805
0.0150869
0.0172561
8.2069e-07
0.00123211
0.00231795
0.000922496
0.00188269
0.00184562
0.00226789
0.00264546
0.0019593
0.00295487
0.00330645
0.00462684
0.00500186
0.00538679
0.00656817
0.00798777
0.00946061
0.0107409
0.0149533
0.0168528
-3.38747e-07
0.00122896
0.0023237
0.000939069
0.00187599
0.00183302
0.00227626
0.00263023
0.00198371
0.00296021
0.0032994
0.00461827
0.00500101
0.00538518
0.00656585
0.00795552
0.00944072
0.0106738
0.0147845
0.0164639
-1.66076e-06
0.00122572
0.0023299
0.000956341
0.00186892
0.00182056
0.00228469
0.00261442
0.00200974
0.00296517
0.00329202
0.00460903
0.00500051
0.00538057
0.00656262
0.00792093
0.00941295
0.0106036
0.0145816
0.0160848
-3.04845e-06
0.00122236
0.00233644
0.0009744
0.0018615
0.0018084
0.0022933
0.00259799
0.00203712
0.00296985
0.0032843
0.00459914
0.00500028
0.00537313
0.00655785
0.0078847
0.00937555
0.0105298
0.0143472
0.0157102
-4.43321e-06
0.00121882
0.0023433
0.000993231
0.00185369
0.00179659
0.00230218
0.00258099
0.00206541
0.00297437
0.0032763
0.00458861
0.00500019
0.00536331
0.00655077
0.00784731
0.00932713
0.0104516
0.0140842
0.0153352
-5.76707e-06
0.00121504
0.00235045
0.00101277
0.00184549
0.00178511
0.00231141
0.00256352
0.0020941
0.00297881
0.0032681
0.00457753
0.0049999
0.00535165
0.0065406
0.00780901
0.00926669
0.0103674
0.0137966
0.0149555
-7.01029e-06
0.00121096
0.00235788
0.00103297
0.00183689
0.00177393
0.002321
0.00254571
0.00212268
0.00298332
0.00325969
0.00456597
0.00499894
0.0053386
0.00652663
0.00776979
0.00919383
0.0102747
0.0134887
0.0145684
-8.1242e-06
0.00120652
0.00236558
0.00105376
0.0018279
0.00176301
0.00233092
0.00252771
0.0021507
0.00298806
0.00325098
0.00455413
0.00499692
0.00532445
0.00650803
0.00772917
0.00910918
0.0101702
0.0131649
0.0141732
-9.062e-06
0.00120167
0.00237354
0.00107511
0.00181856
0.0017523
0.00234104
0.0025097
0.00217777
0.00299319
0.00324172
0.00454226
0.0049935
0.00530936
0.00648407
0.00768589
0.00901398
0.0100512
0.0128282
0.0137705
-9.76058e-06
0.00119631
0.00238175
0.00109699
0.00180889
0.00174176
0.00235124
0.00249189
0.00220352
0.00299894
0.0032316
0.00453062
0.00498841
0.00529319
0.00645458
0.00763805
0.00890944
0.00991628
0.0124809
0.0133609
-1.01423e-05
0.00119036
0.00239018
0.00111938
0.0017989
0.00173138
0.00236135
0.00247452
0.00222754
0.00300559
0.00322031
0.0045193
0.00498137
0.0052755
0.00642022
0.00758344
0.00879631
0.00976528
0.0121239
0.0129457
-1.01166e-05
0.00118372
0.00239882
0.00114223
0.0017886
0.0017212
0.00237118
0.0024579
0.00224936
0.00301341
0.00320765
0.00450826
0.0049724
0.00525545
0.0063822
0.00751987
0.00867424
0.00959911
0.0117578
0.0125261
-9.57225e-06
0.00117624
0.00240764
0.00116552
0.001778
0.00171129
0.0023805
0.00244234
0.00226853
0.00302261
0.00319351
0.00449739
0.00496193
0.00523166
0.00634184
0.00744616
0.00854188
0.00941986
0.0113839
0.012103
-8.3765e-06
0.00116778
0.0024166
0.00118922
0.00176708
0.00170175
0.00238907
0.0024282
0.00228458
0.0030334
0.00317786
0.00448625
0.00495072
0.00520235
0.0063002
0.00736213
0.00839741
0.00922954
0.0110035
0.0116774
-6.37766e-06
0.00115818
0.00242565
0.0012133
0.00175584
0.00169272
0.00239657
0.00241589
0.00229698
0.00304585
0.00316089
0.00447396
0.00493979
0.00516587
0.0062564
0.00726872
0.00823847
0.00902969
0.0106193
0.0112469
-3.40665e-06
0.00114726
0.00243475
0.00123776
0.00174425
0.00168442
0.00240263
0.00240581
0.00230535
0.00305982
0.00314311
0.0044595
0.00493036
0.00512122
0.00621584
0.00716793
0.00806295
0.00882048
0.0102341
0.0108112
7.24943e-07
0.00113483
0.0024438
0.00126257
0.00173224
0.00167713
0.00240681
0.0023984
0.00230943
0.00307487
0.00312522
0.00444165
0.00492359
0.00506806
0.00616216
0.00706213
0.00787021
0.00860051
0.00985105
0.0103701
6.22846e-06
0.00112066
0.00245271
0.00128781
0.00171972
0.00167117
0.00240868
0.00239402
0.00230901
0.00309046
0.00310836
0.0044186
0.00491982
0.00500678
0.00609676
0.00695351
0.007661
0.00836715
0.00947352
0.00992552
1.33283e-05
0.00110455
0.00246131
0.00131359
0.00170651
0.00166687
0.00240783
0.00239281
0.00230415
0.00310576
0.00309402
0.00438845
0.00491859
0.00493865
0.00601779
0.00684345
0.00743818
0.00811736
0.00910386
0.00948103
2.22594e-05
0.00108629
0.00246943
0.00134001
0.00169244
0.00166467
0.00240386
0.00239482
0.00229514
0.0031195
0.00308386
0.00435013
0.00491885
0.00486515
0.0059219
0.00673195
0.00720663
0.00784908
0.00874354
0.00904142
3.32811e-05
0.00106567
0.00247678
0.00136729
0.00167719
0.00166502
0.00239655
0.00239987
0.0022825
0.00313015
0.00307921
0.00430331
0.00491841
0.0047886
0.00580676
0.00661692
0.0069717
0.00756167
0.00838908
0.00861204
4.66619e-05
0.00104254
0.002483
0.0013957
0.00166036
0.00166837
0.00238588
0.00240736
0.00226723
0.00313611
0.00308061
0.00424799
0.00491439
0.0047118
0.00567189
0.00649734
0.00673808
0.00725611
0.00803524
0.00819828
6.26556e-05
0.00101677
0.00248765
0.00142559
0.00164147
0.00167511
0.00237208
0.00241711
0.0022505
0.00313574
0.00308792
0.00418497
0.00490377
0.00463679
0.00551787
0.0063655
0.00650955
0.00693441
0.0076775
0.00780406
8.15254e-05
0.000988289
0.00249011
0.00145738
0.00162009
0.00168549
0.00235542
0.00242583
0.00223339
0.00312775
0.00310025
0.00411603
0.00488296
0.00456444
0.00534731
0.00621951
0.00628842
0.00659763
0.00731058
0.00743015
0.000103555
0.000957121
0.00248964
0.00149163
0.00159584
0.0016994
0.0023366
0.0024331
0.00221719
0.00311161
0.00311552
0.0040437
0.00484911
0.00449447
0.00516343
0.00605637
0.00607516
0.00625931
0.00693086
0.00707351
0.000128994
0.000923328
0.00248717
0.00152896
0.00156855
0.00171641
0.00231698
0.00243715
0.00220937
0.00308746
0.00313103
0.00397022
0.00480094
0.00442572
0.00496943
0.00587417
0.00586904
0.00592304
0.00653565
0.00672619
0.000158044
0.00088715
0.00247851
0.00156975
0.00153834
0.00173584
0.00229821
0.00243606
0.00221866
0.0030561
0.00314413
0.00389682
0.00473782
0.00435654
0.00476893
0.00567249
0.00566754
0.00559465
0.00612551
0.00637668
0.000191712
0.000849025
0.00246335
0.00161421
0.0015056
0.00175653
0.00228247
0.0024282
0.00222469
0.0030193
0.00315163
0.00382375
0.00466076
0.00428537
0.00456473
0.00545134
0.00546697
0.00527957
0.00570593
0.00601301
0.000228402
0.000809496
0.00244055
0.00166248
0.00147111
0.00177682
0.00227212
0.00241289
0.00223012
0.00297936
0.00315097
0.00375037
0.00457141
0.00421087
0.00435906
0.00521137
0.00526318
0.00498066
0.00528567
0.00562764
0.00026891
0.000769284
0.00240879
0.00171435
0.00143603
0.00179475
0.00226919
0.00239036
0.00223274
0.00293827
0.00314119
0.00367468
0.00447115
0.00413262
0.00415377
0.00495408
0.00505258
0.00469782
0.00487337
0.00522127
0.000313151
0.000729278
0.00236698
0.00176911
0.00140194
0.00180798
0.00227511
0.00236216
0.00222982
0.00289732
0.00312254
0.00359449
0.00436067
0.00405087
0.00395085
0.00468112
0.00483254
0.0044289
0.00447475
0.00480129
0.000360875
0.000690345
0.00231432
0.0018257
0.00137055
0.00181446
0.00229161
0.00233085
0.00221806
0.00285639
0.003097
0.00350873
0.00423935
0.0039651
0.0037531
0.0043945
0.00460037
0.00417234
0.00409295
0.00437663
0.00041171
0.000653363
0.0022389
0.0018831
0.00134373
0.00181259
0.00231526
0.00230004
0.00219496
0.00281386
0.00306708
0.00341756
0.00410608
0.00387348
0.0035635
0.00409725
0.00435263
0.00392804
0.00373085
0.00395355
0.00046504
0.000619496
0.00216432
0.00193924
0.00132345
0.00180134
0.00234348
0.0022734
0.00216029
0.00276674
0.00303406
0.00332216
0.00396089
0.00377384
0.00338336
0.00379371
0.00408615
0.00369391
0.00339337
0.00353669
0.000519982
0.000590014
0.00207967
0.00199157
0.00131197
0.00178058
0.00237326
0.00225389
0.00211441
0.00271154
0.0029977
0.00322454
0.00380488
0.00366443
0.00321221
0.00348925
0.00379995
0.00346362
0.00308408
0.0031336
0.000575401
0.000566266
0.00198638
0.00203693
0.00130964
0.00175103
0.00240088
0.00224325
0.00206021
0.00264545
0.00295695
0.00312679
0.00363947
0.00354334
0.00304895
0.00318878
0.00349612
0.00323019
0.00280305
0.00275394
0.000629952
0.000549477
0.00188674
0.0020723
0.00131658
0.00171443
0.00242263
0.00224178
0.00200156
0.00256718
0.00290967
0.00302988
0.00346673
0.00340914
0.00289268
0.00289685
0.00317726
0.00298786
0.00254568
0.0024042
0.000682433
0.000540638
0.00178348
0.002095
0.00133167
0.00167325
0.00243559
0.00224786
0.00194213
0.00247728
0.00285364
0.00293331
0.0032888
0.00326177
0.00274223
0.00261789
0.00284619
0.00273132
0.00230631
0.00208702
0.000731809
0.000540275
0.00167954
0.002103
0.00135285
0.00162993
0.00243801
0.00225802
0.00188341
0.0023775
0.00278842
0.00283652
0.00310655
0.00310144
0.00259589
0.00235609
0.00250881
0.00245498
0.00207802
0.00180312
0.000777221
0.000548234
0.00157787
0.00209501
0.00137697
0.00158664
0.00242912
0.002269
0.00182615
0.00226943
0.00271486
0.00273955
0.00291993
0.00292715
0.00245211
0.00211582
0.00217375
0.00215558
0.00184975
0.00155095
0.000818071
0.000563732
0.00148116
0.00207102
0.00140062
0.00154417
0.00240939
0.0022787
0.00176982
0.00215402
0.00263415
0.00264435
0.00272996
0.00273612
0.00230661
0.00189956
0.00185145
0.00183764
0.00160799
0.00132338
0.000854022
0.000585407
0.00139165
0.00203211
0.00141946
0.00150225
0.00238001
0.00228673
0.00171261
0.00203022
0.00254706
0.00255502
0.00253981
0.00252642
0.00215264
0.00170489
0.00155249
0.00151248
0.00134372
0.00110802
0.00088495
0.000611503
0.00131088
0.0019807
0.0014322
0.0014597
0.00234103
0.0022936
0.00165518
0.00189462
0.00245197
0.00247595
0.00235618
0.00229822
0.00198249
0.00152719
0.00128446
0.00119395
0.00105827
0.000886252
0.000910933
0.000640182
0.00123966
0.00192022
0.00143685
0.00141452
0.00229233
0.00229985
0.00159946
0.00174428
0.00234312
0.00240865
0.00219029
0.002056
0.0017872
0.00135893
0.00104943
0.000896433
0.000764374
0.000644547
0.000932239
0.000669629
0.00117797
0.00185392
0.00143257
0.00136453
0.00223267
0.00230539
0.00155019
0.00157882
0.00221168
0.00235042
0.00205402
0.0018107
0.00156122
0.00118711
0.000844007
0.000630399
0.000478438
0.000384053
0.000949256
0.000698209
0.00112484
0.00178495
0.00141995
0.00130825
0.00215937
0.00230896
0.00151369
0.0014005
0.00204838
0.00229324
0.00195301
0.00157945
0.00130882
0.000995727
0.0006609
0.000400628
0.000216169
0.000120857
0.000962401
0.000724752
0.00107851
0.00171582
0.00140081
0.00124462
0.00206979
0.00230738
0.00149503
0.00121584
0.00184579
0.0022225
0.00188741
0.0013807
0.00104147
0.000773527
0.000485848
0.000205799
-1.2148e-05
-0.000125604
0.000972073
0.000748562
0.00103686
0.00164738
0.00137774
0.0011737
0.00196152
0.00229482
0.00149579
0.00103928
0.00160362
0.00211754
0.00185173
0.00123063
0.00077745
0.000520369
0.00029952
3.90654e-05
-0.0002027
-0.000340688
0.000978691
0.000769287
0.000997932
0.0015803
0.00135293
0.00109816
0.0018333
0.00226409
0.00151444
0.000886903
0.00132878
0.00195928
0.0018277
0.00113778
0.000540955
0.000246399
8.7083e-05
-0.00011298
-0.000355899
-0.00051882
0.000982315
0.000786809
0.000960264
0.00151328
0.00132848
0.00102076
0.00168518
0.00220851
0.00154596
0.000769874
0.0010352
0.00173859
0.00178689
0.0010979
0.000357426
-3.07073e-05
-0.00015781
-0.00027062
-0.000477219
-0.000657961
0.000982686
0.000801367
0.000923042
0.00144433
0.00130507
0.00094625
0.00151894
0.00212181
0.00157998
0.000694757
0.000746227
0.00145783
0.00170213
0.00109653
0.000242157
-0.000282985
-0.000428373
-0.00045463
-0.000581876
-0.000759871
0.000979527
0.00081321
0.000886043
0.00137147
0.00128213
0.000880553
0.00133942
0.00199983
0.00160316
0.000660923
0.000488665
0.00112868
0.00155008
0.00110609
0.000194164
-0.000480271
-0.000703118
-0.000678571
-0.000696455
-0.000832784
0.000972375
0.00082268
0.000849664
0.00129291
0.00125747
0.00082648
0.00115391
0.00184094
0.00160412
0.000662171
0.000279984
0.000777034
0.0013211
0.00109175
0.000204349
-0.000607184
-0.000951669
-0.000932977
-0.000849822
-0.000899188
0.000960878
0.0008294
0.000814787
0.00120816
0.00122703
0.000785561
0.000972229
0.00164687
0.00157232
0.000686009
0.000126435
0.000436882
0.00102627
0.00101902
0.00024898
-0.000660249
-0.00114899
-0.00119282
-0.00105354
-0.000993087
0.000944796
0.000832831
0.000782492
0.00111796
0.00118651
0.000757292
0.000803467
0.00142315
0.00149877
0.000716268
2.74459e-05
0.000133553
0.000687201
0.000868717
0.000287807
-0.000645232
-0.00128104
-0.00143154
-0.0012906
-0.00113743
0.000924026
0.00083192
0.000753277
0.0010235
0.00113231
0.000737847
0.000655018
0.00118026
0.00137913
0.00073635
-2.33109e-05
-0.000116729
0.000335434
0.000643577
0.000280807
-0.00058496
-0.00133855
-0.00162835
-0.00153755
-0.00132935
0.000898663
0.000825634
0.000726968
0.000927832
0.0010626
0.000720859
0.00053176
0.000932645
0.00121407
0.000731893
-3.97478e-05
-0.000308962
2.79482e-06
0.000361369
0.000201837
-0.000520711
-0.00132695
-0.00176208
-0.00176767
-0.00155009
0.000868976
0.000813102
0.000703108
0.000834595
0.000977664
0.000698671
0.000434218
0.000695437
0.00100916
0.000689917
-3.77163e-05
-0.000446197
-0.000291577
5.04073e-05
4.8663e-05
-0.00049235
-0.00126794
-0.00181914
-0.00195299
-0.00177704
0.00083545
0.00079379
0.00068043
0.000746173
0.000879563
0.00066445
0.000359669
0.000480617
0.00077599
0.000601732
-3.51558e-05
-0.000533876
-0.000538684
-0.000259809
-0.000160784
-0.000522624
-0.00119858
-0.00180737
-0.00207101
-0.00198272
0.000798611
0.000767447
0.000656516
0.000664156
0.000771796
0.000613843
0.000300699
0.000295374
0.000531354
0.000467766
-5.08285e-05
-0.000583783
-0.000732092
-0.00055053
-0.000404036
-0.000611436
-0.00115293
-0.00174967
-0.00211489
-0.00214014
0.000758904
0.000734058
0.000629147
0.000589121
0.000659149
0.000545651
0.000247612
0.00014111
0.000293001
0.00029603
-9.88386e-05
-0.000615876
-0.0008728
-0.000804796
-0.000659669
-0.000746742
-0.00114738
-0.0016792
-0.00209655
-0.00223332
0.000716805
0.000694044
0.000596916
0.000520817
0.000546543
0.000461152
0.000192282
1.49787e-05
7.36268e-05
9.8616e-05
-0.000184143
-0.000649561
-0.000970899
-0.00100929
-0.000906325
-0.000916202
-0.00118437
-0.00162242
-0.00203794
-0.00226096
0.000672751
0.000648365
0.000558411
0.000458028
0.000438461
0.000363875
0.000128709
-8.87999e-05
-0.000118817
-0.00010904
-0.000304712
-0.000696643
-0.00104271
-0.00116615
-0.00112324
-0.00110325
-0.00126048
-0.00159242
-0.00196606
-0.0022348
0.000626912
0.000598406
0.000513353
0.000398839
0.00033772
0.000258514
5.40968e-05
-0.000178999
-0.000282235
-0.000310661
-0.000453121
-0.000765628
-0.00110234
-0.00128552
-0.00130023
-0.00128487
-0.00136723
-0.00159498
-0.00190146
-0.00217354
0.000579467
0.000545713
0.000462455
0.000340877
0.000245464
0.000150476
-3.12266e-05
-0.000263665
-0.000420013
-0.000494166
-0.000616458
-0.000860499
-0.0011605
-0.0013775
-0.00144119
-0.00144222
-0.00148795
-0.00163017
-0.00185908
-0.00210268
0.000530677
0.000491652
0.000407069
0.000282196
0.00016147
4.51721e-05
-0.000124549
-0.000347951
-0.000536998
-0.000654361
-0.000778635
-0.000975926
-0.00122702
-0.00144992
-0.001553
-0.00157073
-0.00160208
-0.00168881
-0.00184772
-0.00204677
0.000480941
0.000437287
0.000349153
0.000221958
8.44724e-05
-5.30885e-05
-0.000221398
-0.000434288
-0.000639234
-0.000791521
-0.000927744
-0.00110058
-0.00130668
-0.00151092
-0.00163953
-0.00167465
-0.00169891
-0.00175697
-0.00186567
-0.00202247
0.000430938
0.000383499
0.000290954
0.000160795
1.28926e-05
-0.00014233
-0.000316465
-0.00052203
-0.000732134
-0.000908612
-0.00105894
-0.00122185
-0.00139631
-0.00156862
-0.0017038
-0.00175762
-0.00177926
-0.00182351
-0.00190452
-0.00203069
0.000381676
0.000331139
0.00023443
0.000100472
-5.44975e-05
-0.000222642
-0.000405166
-0.000607977
-0.000817922
-0.0010087
-0.0011719
-0.0013317
-0.0014882
-0.00162991
-0.00175235
-0.00181983
-0.00184555
-0.00188338
-0.00195247
-0.00206318
0.000334454
0.000281257
0.000181065
4.29686e-05
-0.000117679
-0.000294476
-0.000484723
-0.000688519
-0.000896636
-0.00109368
-0.00126699
-0.00142624
-0.00157549
-0.00169807
-0.00179967
-0.00186862
-0.00189853
-0.00193148
-0.00199476
-0.0020997
0.000290728
0.000235203
0.000132213
-9.70037e-06
-0.000175242
-0.000358002
-0.000554002
-0.000760379
-0.000967839
-0.00116606
-0.00134388
-0.00150204
-0.0016469
-0.00176527
-0.00185511
-0.00192204
-0.0019569
-0.00198263
-0.00203246
-0.00212584
0.000252052
0.000194535
8.94226e-05
-5.54523e-05
-0.000225084
-0.000412095
-0.000611925
-0.000820959
-0.00102927
-0.00122784
-0.00140747
-0.00156246
-0.00169656
-0.00180543
-0.00188525
-0.00194937
-0.00200061
-0.00204811
-0.00211538
-0.0022186
0.000219977
0.000160714
5.41271e-05
-9.24275e-05
-0.000265143
-0.00045503
-0.000656626
-0.000866973
-0.00107643
-0.00127512
-0.00145535
-0.0016119
-0.00174516
-0.00185378
-0.00193131
-0.00198453
-0.00202506
-0.00206252
-0.00211826
-0.00221384
0.000194651
0.000132471
2.3633e-05
-0.000124559
-0.000299933
-0.000492887
-0.00069621
-0.000907104
-0.00111692
-0.0013153
-0.00149396
-0.00164874
-0.00177829
-0.00188286
-0.00195985
-0.00201299
-0.00205504
-0.00209792
-0.0021591
-0.00225827
0.0294917
0.0199401
0.00871752
0.000699182
-0.00233444
-0.00228847
-0.00190066
-0.00207511
-0.00251898
-0.0028555
-0.00310493
-0.00334917
-0.00352943
-0.00370806
-0.00400915
-0.00437207
-0.00469352
-0.00498283
-0.0052872
-0.00562405
-0.00597358
-0.00630422
-0.00661407
-0.00692123
-0.00724062
-0.00758599
-0.00795397
-0.0083335
-0.00873341
-0.00915769
-0.0095892
-0.0100022
-0.0103776
-0.0107216
-0.011068
-0.0114472
-0.0118327
-0.0122068
-0.0126046
-0.0130122
-0.0133901
-0.0137782
-0.0142034
-0.014625
-0.0150187
-0.0154076
-0.0158149
-0.0162393
-0.0166754
-0.0171113
-0.0175335
-0.0179654
-0.0184275
-0.0188748
-0.0192964
-0.019744
-0.0202172
-0.0206731
-0.0211236
-0.0215963
-0.0220756
-0.0225511
-0.0230311
-0.0235242
-0.0240245
-0.0245322
-0.0250485
-0.0255741
-0.0261109
-0.0266559
-0.027214
-0.0277753
-0.0283448
-0.0289211
-0.0295117
-0.0301154
-0.0307298
-0.0313602
-0.0319984
-0.0326522
-0.0333134
-0.0339877
-0.0346748
-0.0353705
-0.036084
-0.0368049
-0.037543
-0.0382935
-0.039055
-0.0398357
-0.0406236
-0.0414324
-0.0422485
-0.0430867
-0.0439305
-0.0447916
-0.0456763
-0.0465393
-0.0474023
-0.0482758
0.0278552
0.0197183
0.00879262
0.000842518
-0.00224077
-0.00224303
-0.00187323
-0.00205723
-0.00250709
-0.00284677
-0.00309792
-0.00334341
-0.00352425
-0.00370298
-0.00400441
-0.00436786
-0.00468966
-0.00497919
-0.00528373
-0.00562078
-0.00597056
-0.00630143
-0.00661147
-0.00691878
-0.00723832
-0.00758384
-0.00795199
-0.00833166
-0.00873168
-0.00915609
-0.00958773
-0.0100009
-0.0103764
-0.0107205
-0.0110669
-0.0114461
-0.0118318
-0.012206
-0.0126038
-0.0130114
-0.0133894
-0.0137775
-0.0142028
-0.0146244
-0.0150182
-0.0154071
-0.0158144
-0.0162389
-0.016675
-0.0171109
-0.0175332
-0.0179651
-0.0184272
-0.0188746
-0.0192961
-0.0197438
-0.020217
-0.020673
-0.0211234
-0.0215961
-0.0220754
-0.022551
-0.023031
-0.0235241
-0.0240245
-0.0245321
-0.0250484
-0.025574
-0.0261108
-0.0266559
-0.0272139
-0.0277752
-0.0283448
-0.028921
-0.0295117
-0.0301154
-0.0307298
-0.0313602
-0.0319984
-0.0326522
-0.0333134
-0.0339877
-0.0346747
-0.0353705
-0.036084
-0.0368049
-0.037543
-0.0382935
-0.039055
-0.0398357
-0.0406236
-0.0414324
-0.0422485
-0.0430867
-0.0439305
-0.0447916
-0.0456763
-0.0465393
-0.0474023
-0.0482759
0.0265842
0.0195617
0.00897451
0.0011148
-0.0020784
-0.00218209
-0.00184414
-0.00203494
-0.00248897
-0.00283278
-0.00308754
-0.00333594
-0.00351863
-0.00369824
-0.00400016
-0.00436397
-0.00468609
-0.00497596
-0.00528077
-0.00561801
-0.00596793
-0.00629895
-0.00660912
-0.00691658
-0.00723623
-0.00758188
-0.00795017
-0.00832997
-0.00873012
-0.00915468
-0.00958646
-0.00999975
-0.0103753
-0.0107194
-0.0110659
-0.0114452
-0.011831
-0.0122051
-0.012603
-0.0130108
-0.0133888
-0.0137769
-0.0142022
-0.0146239
-0.0150177
-0.0154066
-0.015814
-0.0162385
-0.0166746
-0.0171106
-0.0175329
-0.0179648
-0.018427
-0.0188744
-0.0192959
-0.0197436
-0.0202169
-0.0206728
-0.0211233
-0.021596
-0.0220753
-0.0225509
-0.0230309
-0.023524
-0.0240244
-0.024532
-0.0250484
-0.025574
-0.0261108
-0.0266558
-0.0272139
-0.0277752
-0.0283448
-0.028921
-0.0295116
-0.0301153
-0.0307298
-0.0313602
-0.0319984
-0.0326522
-0.0333134
-0.0339876
-0.0346747
-0.0353705
-0.036084
-0.0368049
-0.037543
-0.0382935
-0.039055
-0.0398357
-0.0406236
-0.0414324
-0.0422485
-0.0430867
-0.0439305
-0.0447916
-0.0456763
-0.0465393
-0.0474024
-0.048276
0.0254208
0.0193675
0.0091862
0.00144729
-0.00186036
-0.00209669
-0.00180206
-0.00199992
-0.00245834
-0.0028088
-0.00307012
-0.00332383
-0.0035106
-0.00369275
-0.00399551
-0.00435932
-0.00468168
-0.00497226
-0.00527774
-0.00561527
-0.00596529
-0.00629637
-0.00660668
-0.00691426
-0.00723398
-0.00757968
-0.00794808
-0.00832803
-0.00872837
-0.00915314
-0.00958508
-0.00999846
-0.0103741
-0.0107182
-0.0110648
-0.0114442
-0.0118301
-0.0122042
-0.0126021
-0.01301
-0.0133881
-0.0137763
-0.0142016
-0.0146233
-0.0150172
-0.0154061
-0.0158135
-0.016238
-0.0166742
-0.0171102
-0.0175325
-0.0179645
-0.0184267
-0.0188741
-0.0192957
-0.0197434
-0.0202167
-0.0206727
-0.0211231
-0.0215959
-0.0220752
-0.0225508
-0.0230308
-0.0235239
-0.0240243
-0.024532
-0.0250483
-0.0255739
-0.0261107
-0.0266558
-0.0272139
-0.0277752
-0.0283448
-0.028921
-0.0295116
-0.0301153
-0.0307298
-0.0313602
-0.0319984
-0.0326522
-0.0333134
-0.0339876
-0.0346747
-0.0353705
-0.036084
-0.0368049
-0.037543
-0.0382935
-0.039055
-0.0398357
-0.0406236
-0.0414324
-0.0422485
-0.0430867
-0.0439305
-0.0447916
-0.0456763
-0.0465393
-0.0474024
-0.0482762
0.0242647
0.0191051
0.00939211
0.0017936
-0.00162202
-0.00199994
-0.00175355
-0.00195558
-0.00241602
-0.00277423
-0.00304444
-0.00330555
-0.00349885
-0.00368574
-0.00399003
-0.0043534
-0.0046758
-0.00496749
-0.00527412
-0.00561217
-0.00596228
-0.0062935
-0.00660407
-0.00691188
-0.00723162
-0.00757719
-0.00794552
-0.00832559
-0.00872621
-0.00915125
-0.00958334
-0.0099968
-0.0103725
-0.0107167
-0.0110634
-0.0114429
-0.0118289
-0.0122031
-0.012601
-0.013009
-0.0133873
-0.0137755
-0.0142009
-0.0146226
-0.0150164
-0.0154055
-0.0158129
-0.0162375
-0.0166737
-0.0171097
-0.0175321
-0.0179641
-0.0184263
-0.0188738
-0.0192953
-0.0197431
-0.0202164
-0.0206724
-0.0211229
-0.0215957
-0.022075
-0.0225507
-0.0230306
-0.0235238
-0.0240242
-0.0245319
-0.0250482
-0.0255738
-0.0261107
-0.0266557
-0.0272138
-0.0277751
-0.0283447
-0.028921
-0.0295116
-0.0301153
-0.0307298
-0.0313602
-0.0319984
-0.0326521
-0.0333134
-0.0339876
-0.0346747
-0.0353705
-0.036084
-0.0368049
-0.037543
-0.0382935
-0.039055
-0.0398357
-0.0406236
-0.0414324
-0.0422485
-0.0430867
-0.0439305
-0.0447916
-0.0456763
-0.0465394
-0.0474025
-0.0482765
0.0231242
0.0187854
0.00958806
0.00214193
-0.00137466
-0.00189847
-0.00170462
-0.00190816
-0.00236744
-0.00273298
-0.00301298
-0.00328257
-0.003484
-0.00367729
-0.00398363
-0.00434623
-0.00466848
-0.00496151
-0.00526962
-0.0056083
-0.00595852
-0.00629003
-0.0066012
-0.00690953
-0.00722939
-0.00757467
-0.00794269
-0.00832275
-0.00872364
-0.00914893
-0.00958111
-0.00999454
-0.0103703
-0.0107147
-0.0110616
-0.0114413
-0.0118274
-0.0122015
-0.0125994
-0.0130076
-0.0133861
-0.0137745
-0.0141999
-0.0146216
-0.0150155
-0.0154046
-0.0158122
-0.0162367
-0.0166729
-0.017109
-0.0175315
-0.0179635
-0.0184258
-0.0188733
-0.0192948
-0.0197426
-0.0202161
-0.0206721
-0.0211225
-0.0215954
-0.0220748
-0.0225504
-0.0230304
-0.0235236
-0.024024
-0.0245317
-0.0250481
-0.0255737
-0.0261106
-0.0266556
-0.0272137
-0.0277751
-0.0283447
-0.0289209
-0.0295115
-0.0301153
-0.0307297
-0.0313601
-0.0319984
-0.0326521
-0.0333133
-0.0339876
-0.0346747
-0.0353704
-0.036084
-0.0368049
-0.037543
-0.0382935
-0.039055
-0.0398357
-0.0406236
-0.0414324
-0.0422485
-0.0430867
-0.0439305
-0.0447916
-0.0456763
-0.0465394
-0.0474026
-0.0482769
0.022012
0.0184177
0.0097701
0.0024885
-0.00112005
-0.00179251
-0.00165631
-0.00186017
-0.00231556
-0.00268772
-0.00297804
-0.00325682
-0.00346728
-0.00366781
-0.0039765
-0.00433818
-0.00466017
-0.00495464
-0.00526432
-0.00560351
-0.00595374
-0.00628568
-0.00659782
-0.00690712
-0.00722737
-0.00757237
-0.00793991
-0.00831986
-0.00872097
-0.00914639
-0.00957839
-0.00999154
-0.0103673
-0.010712
-0.0110593
-0.0114393
-0.0118255
-0.0121995
-0.0125972
-0.0130055
-0.0133846
-0.0137733
-0.0141986
-0.0146201
-0.0150141
-0.0154035
-0.0158112
-0.0162357
-0.0166718
-0.017108
-0.0175306
-0.0179627
-0.0184249
-0.0188725
-0.0192941
-0.019742
-0.0202155
-0.0206715
-0.021122
-0.021595
-0.0220744
-0.0225501
-0.0230301
-0.0235233
-0.0240238
-0.0245315
-0.0250479
-0.0255735
-0.0261104
-0.0266555
-0.0272136
-0.027775
-0.0283446
-0.0289208
-0.0295115
-0.0301152
-0.0307297
-0.0313601
-0.0319983
-0.0326521
-0.0333133
-0.0339876
-0.0346747
-0.0353704
-0.036084
-0.0368049
-0.037543
-0.0382935
-0.039055
-0.0398357
-0.0406236
-0.0414324
-0.0422485
-0.0430867
-0.0439305
-0.0447916
-0.0456763
-0.0465394
-0.0474027
-0.0482774
0.0209371
0.0180042
0.0099315
0.00283079
-0.000857549
-0.00168025
-0.00160814
-0.00181254
-0.00226163
-0.00263954
-0.00294068
-0.00322931
-0.0034493
-0.00365752
-0.00396878
-0.00432954
-0.00465128
-0.00494726
-0.00525847
-0.00559801
-0.00594805
-0.00628044
-0.00659381
-0.00690445
-0.00722545
-0.00757033
-0.00793741
-0.00831726
-0.00871858
-0.009144
-0.00957549
-0.00998794
-0.0103634
-0.0107085
-0.0110563
-0.0114367
-0.0118232
-0.0121971
-0.0125945
-0.0130028
-0.0133825
-0.0137718
-0.0141969
-0.0146181
-0.0150122
-0.0154021
-0.01581
-0.0162343
-0.0166702
-0.0171065
-0.0175295
-0.0179616
-0.0184237
-0.0188713
-0.0192931
-0.0197411
-0.0202146
-0.0206707
-0.0211214
-0.0215944
-0.0220738
-0.0225496
-0.0230296
-0.0235229
-0.0240234
-0.0245312
-0.0250476
-0.0255733
-0.0261102
-0.0266553
-0.0272134
-0.0277748
-0.0283444
-0.0289207
-0.0295113
-0.0301151
-0.0307296
-0.03136
-0.0319982
-0.032652
-0.0333133
-0.0339875
-0.0346747
-0.0353704
-0.0360839
-0.0368049
-0.0375429
-0.0382935
-0.039055
-0.0398357
-0.0406236
-0.0414324
-0.0422485
-0.0430867
-0.0439305
-0.0447916
-0.0456763
-0.0465395
-0.0474029
-0.0482779
0.0199054
0.0175459
0.0100661
0.00316773
-0.000585487
-0.00155966
-0.00155967
-0.00176627
-0.0022067
-0.00258912
-0.00290141
-0.00320044
-0.00343032
-0.00364654
-0.0039606
-0.00432052
-0.00464203
-0.00493954
-0.00525227
-0.00559205
-0.00594176
-0.00627455
-0.00658926
-0.0069015
-0.0072235
-0.00756846
-0.0079352
-0.00831505
-0.00871668
-0.00914208
-0.00957281
-0.00998412
-0.0103589
-0.0107042
-0.0110527
-0.0114336
-0.0118205
-0.0121944
-0.0125912
-0.0129994
-0.0133799
-0.0137698
-0.0141947
-0.0146155
-0.0150098
-0.0154003
-0.0158085
-0.0162325
-0.0166682
-0.0171046
-0.0175279
-0.0179602
-0.0184221
-0.0188697
-0.0192918
-0.0197399
-0.0202134
-0.0206696
-0.0211204
-0.0215935
-0.022073
-0.0225488
-0.023029
-0.0235223
-0.0240229
-0.0245307
-0.0250472
-0.0255729
-0.0261099
-0.026655
-0.0272132
-0.0277746
-0.0283442
-0.0289205
-0.0295112
-0.0301149
-0.0307295
-0.0313599
-0.0319981
-0.0326519
-0.0333132
-0.0339875
-0.0346746
-0.0353704
-0.0360839
-0.0368048
-0.0375429
-0.0382934
-0.039055
-0.0398357
-0.0406236
-0.0414324
-0.0422485
-0.0430867
-0.0439305
-0.0447916
-0.0456763
-0.0465396
-0.0474032
-0.0482786
0.0189204
0.0170462
0.0101699
0.00349871
-0.000303058
-0.00142946
-0.0015109
-0.00172256
-0.00215198
-0.00253708
-0.00286048
-0.00317035
-0.00341046
-0.00363498
-0.00395206
-0.00431119
-0.00463244
-0.00493151
-0.00524581
-0.00558582
-0.00593514
-0.00626829
-0.00658438
-0.00689833
-0.00722152
-0.00756671
-0.00793322
-0.00831315
-0.00871519
-0.00914062
-0.00957052
-0.00998041
-0.0103542
-0.0106993
-0.0110483
-0.0114298
-0.0118173
-0.0121914
-0.0125876
-0.0129956
-0.013377
-0.0137675
-0.014192
-0.0146123
-0.0150069
-0.0153981
-0.0158067
-0.0162305
-0.0166657
-0.0171022
-0.017526
-0.0179584
-0.0184201
-0.0188677
-0.0192901
-0.0197384
-0.0202119
-0.0206682
-0.0211192
-0.0215924
-0.022072
-0.0225479
-0.0230282
-0.0235216
-0.0240222
-0.02453
-0.0250466
-0.0255724
-0.0261094
-0.0266546
-0.0272128
-0.0277743
-0.028344
-0.0289203
-0.029511
-0.0301147
-0.0307293
-0.0313597
-0.031998
-0.0326518
-0.0333131
-0.0339874
-0.0346745
-0.0353703
-0.0360839
-0.0368048
-0.0375429
-0.0382934
-0.039055
-0.0398357
-0.0406235