/*--------------------------------*- C++ -*----------------------------------*\
| =========                 |                                                 |
| \\      /  F ield         | OpenFOAM: The Open Source CFD Toolbox           |
|  \\    /   O peration     | Version:  2106                                  |
|   \\  /    A nd           | Website:  www.openfoam.com                      |
|    \\/     M anipulation  |                                                 |
\*---------------------------------------------------------------------------*/
FoamFile
{
    version     2.0;
    format      ascii;
    arch        "LSB;label=32;scalar=64";
    class       volVectorField;
    location    "0.525";
    object      U;
}
// * * * * * * * * * * * * * * * * * * * * * * * * * * * * * * * * * * * * * //

dimensions      [0 1 -1 0 0 0 0];

internalField   nonuniform List<vector> 
9600
(
(0.871926 -0.00170335 0)
(1.1341 -0.00399767 0)
(0.871597 -0.00114133 0)
(1.11497 -0.000126845 0)
(0.911105 0.00392609 0)
(1.08591 -0.00694455 0)
(0.915567 0.00754452 0)
(1.14728 -0.00511392 0)
(0.872526 0.00206484 0)
(1.14272 0.00889125 0)
(0.888224 0.000803272 0)
(1.11993 0.00451 0)
(0.902875 0.002675 0)
(1.10547 0.00299066 0)
(0.916554 -0.00434791 0)
(1.09328 -0.00305856 0)
(0.910071 -0.00523304 0)
(1.10036 -0.011362 0)
(0.893835 -0.00283969 0)
(1.11122 -0.018455 0)
(0.883831 -0.00180738 0)
(1.12065 -0.00385804 0)
(0.884203 -0.00117226 0)
(1.10415 -0.000308639 0)
(0.92379 0.0040211 0)
(1.07444 -0.00677609 0)
(0.92776 0.00666963 0)
(1.12845 -0.00437558 0)
(0.891686 0.0019667 0)
(1.1182 0.00888678 0)
(0.921503 0.000972099 0)
(1.08929 0.00442405 0)
(0.944018 0.00281453 0)
(1.06416 0.00283274 0)
(0.969807 -0.0040573 0)
(1.03736 -0.00297069 0)
(0.98107 -0.00506728 0)
(1.01905 -0.0116884 0)
(0.99096 -0.00194442 0)
(0.997117 -0.0200833 0)
(0.904612 -0.00188972 0)
(1.09641 -0.0037341 0)
(0.907492 -0.00120966 0)
(1.08393 -0.000487287 0)
(0.94648 0.0041636 0)
(1.05599 -0.0067067 0)
(0.951252 0.00589562 0)
(1.09948 -0.00379832 0)
(0.927609 0.00192318 0)
(1.07976 0.00861192 0)
(0.965294 0.00128824 0)
(1.05165 0.00415986 0)
(0.983661 0.00317525 0)
(1.03073 0.00243602 0)
(0.99997 -0.00354249 0)
(1.00937 -0.00321837 0)
(1.00086 -0.00475657 0)
(0.998776 -0.0114988 0)
(0.999176 -0.00260965 0)
(0.995442 -0.0163506 0)
(0.930028 -0.00191628 0)
(1.06585 -0.00367611 0)
(0.935381 -0.00124709 0)
(1.05916 -0.000693495 0)
(0.971837 0.00430487 0)
(1.03604 -0.0066877 0)
(0.978236 0.00539815 0)
(1.06959 -0.00348718 0)
(0.965173 0.0020888 0)
(1.04778 0.00816433 0)
(0.998186 0.0016226 0)
(1.0288 0.00393326 0)
(1.00454 0.00345719 0)
(1.01814 0.00223963 0)
(1.00775 -0.00315682 0)
(1.00309 -0.00323704 0)
(1.00119 -0.00440886 0)
(0.995528 -0.011528 0)
(0.994723 -0.00241291 0)
(0.993011 -0.0149206 0)
(0.955166 -0.00188575 0)
(1.03564 -0.00367108 0)
(0.960783 -0.0013017 0)
(1.03578 -0.000916208 0)
(0.992477 0.00443005 0)
(1.01949 -0.00670156 0)
(1.0002 0.00502157 0)
(1.04518 -0.00332819 0)
(0.992253 0.00231318 0)
(1.03084 0.00777345 0)
(1.01569 0.00186332 0)
(1.02086 0.0038561 0)
(1.01304 0.0036448 0)
(1.01554 0.00222783 0)
(1.00891 -0.00277633 0)
(1.00164 -0.00313862 0)
(1.00049 -0.00409579 0)
(0.993594 -0.0113228 0)
(0.992042 -0.00235056 0)
(0.989134 -0.0137949 0)
(0.975939 -0.00180637 0)
(1.01176 -0.00369005 0)
(0.979146 -0.0013864 0)
(1.01783 -0.00112566 0)
(1.00481 0.0045183 0)
(1.0084 -0.00675044 0)
(1.01296 0.00471892 0)
(1.0279 -0.00321499 0)
(1.00614 0.00243267 0)
(1.02436 0.0074811 0)
(1.02224 0.00202345 0)
(1.01881 0.00387872 0)
(1.01585 0.00380676 0)
(1.01468 0.0023158 0)
(1.00846 -0.00237331 0)
(1.00077 -0.00302148 0)
(0.999933 -0.00377512 0)
(0.992767 -0.0109829 0)
(0.990053 -0.00238126 0)
(0.986855 -0.0125329 0)
(0.990398 -0.00169828 0)
(0.996969 -0.00370559 0)
(0.989706 -0.00149665 0)
(1.00619 -0.0013015 0)
(1.00948 0.00455851 0)
(1.00215 -0.00681431 0)
(1.01705 0.00448831 0)
(1.01639 -0.00310953 0)
(1.01003 0.00241006 0)
(1.0209 0.00724467 0)
(1.02247 0.00215825 0)
(1.01674 0.00393229 0)
(1.01532 0.00396957 0)
(1.01313 0.00244702 0)
(1.00711 -0.00196978 0)
(1.00008 -0.00289342 0)
(0.999356 -0.00347677 0)
(0.992834 -0.0105545 0)
(0.988842 -0.00243016 0)
(0.985831 -0.01118 0)
(0.998811 -0.00158512 0)
(0.990403 -0.00370129 0)
(0.994342 -0.00161295 0)
(0.999535 -0.00143809 0)
(1.00926 0.00455598 0)
(0.999095 -0.00687066 0)
(1.01541 0.00431545 0)
(1.00882 -0.00300363 0)
(1.00832 0.00229979 0)
(1.01669 0.00703165 0)
(1.01924 0.00228745 0)
(1.01325 0.00398145 0)
(1.01265 0.00412402 0)
(1.01087 0.0025768 0)
(1.00545 -0.00159183 0)
(0.999567 -0.00277331 0)
(0.999047 -0.00322568 0)
(0.993364 -0.0100576 0)
(0.988589 -0.00247563 0)
(0.985701 -0.00980191 0)
(1.00275 -0.00148375 0)
(0.989277 -0.00367455 0)
(0.995631 -0.00171387 0)
(0.996043 -0.00153863 0)
(1.00696 0.00452129 0)
(0.997726 -0.00690525 0)
(1.01112 0.00418551 0)
(1.00387 -0.00289438 0)
(1.00441 0.00216434 0)
(1.0115 0.00683181 0)
(1.01458 0.00240268 0)
(1.00907 0.00401373 0)
(1.00918 0.00424746 0)
(1.00854 0.00267536 0)
(1.00403 -0.00126313 0)
(0.999301 -0.00266932 0)
(0.999078 -0.00303101 0)
(0.994122 -0.00949943 0)
(0.989029 -0.00252669 0)
(0.986211 -0.00845155 0)
(1.004 -0.00140099 0)
(0.990773 -0.00363175 0)
(0.995536 -0.00178575 0)
(0.994321 -0.00160965 0)
(1.00438 0.0044638 0)
(0.997105 -0.00690909 0)
(1.00633 0.00408645 0)
(1.00072 -0.00278318 0)
(1.00037 0.00204177 0)
(1.00643 0.00664303 0)
(1.00997 0.00249377 0)
(1.0052 0.00402116 0)
(1.00598 0.00432405 0)
(1.00663 0.00272506 0)
(1.00308 -0.000995555 0)
(0.999282 -0.00257457 0)
(0.999325 -0.00289087 0)
(0.994931 -0.00889492 0)
(0.989789 -0.00258227 0)
(0.987054 -0.00716366 0)
(1.00395 -0.00133614 0)
(0.993025 -0.0035816 0)
(0.995096 -0.00182519 0)
(0.993545 -0.00165857 0)
(1.00232 0.00439139 0)
(0.99676 -0.0068775 0)
(1.00215 0.00400487 0)
(0.998808 -0.0026725 0)
(0.997128 0.00194536 0)
(1.00236 0.00646369 0)
(1.00626 0.002557 0)
(1.0022 0.00400069 0)
(1.00357 0.00434852 0)
(1.00528 0.00273048 0)
(1.00258 -0.000791653 0)
(0.999413 -0.00247666 0)
(0.999618 -0.0027936 0)
(0.995651 -0.00826501 0)
(0.990593 -0.00262351 0)
(0.987964 -0.0059607 0)
(1.00343 -0.00128511 0)
(0.99514 -0.003531 0)
(0.994694 -0.00183545 0)
(0.993253 -0.00169227 0)
(1.00092 0.00431038 0)
(0.996523 -0.00681043 0)
(0.99891 0.00392847 0)
(0.997729 -0.00256417 0)
(0.994925 0.00187281 0)
(0.999512 0.00629308 0)
(1.00366 0.00259264 0)
(1.00014 0.00395868 0)
(1.00192 0.00432426 0)
(1.0044 0.00270897 0)
(1.00233 -0.000640095 0)
(0.99957 -0.00236479 0)
(0.999831 -0.00272758 0)
(0.996203 -0.00761789 0)
(0.991295 -0.00263808 0)
(0.988787 -0.00486935 0)
(1.00284 -0.00124368 0)
(0.996821 -0.00348345 0)
(0.994409 -0.0018214 0)
(0.993173 -0.00171598 0)
(1.00005 0.00422469 0)
(0.996374 -0.00671059 0)
(0.996562 0.00384916 0)
(0.997171 -0.00245969 0)
(0.993615 0.00181663 0)
(0.997687 0.00613148 0)
(1.002 0.00260341 0)
(0.998797 0.00390608 0)
(1.00083 0.00426035 0)
(1.00378 0.00266955 0)
(1.00216 -0.00053021 0)
(0.999671 -0.00223243 0)
(0.999914 -0.00267741 0)
(0.996569 -0.0069777 0)
(0.991847 -0.00260103 0)
(0.989471 -0.00390267 0)
(1.00235 -0.0012084 0)
(0.998037 -0.00344007 0)
(0.994224 -0.00178737 0)
(0.993164 -0.00173336 0)
(0.999504 0.00413515 0)
(0.99632 -0.0065823 0)
(0.994932 0.00376278 0)
(0.996906 -0.00235842 0)
(0.992932 0.00176837 0)
(0.996549 0.00598041 0)
(1.00097 0.00259255 0)
(0.997936 0.00385496 0)
(1.00007 0.00416012 0)
(1.00328 0.00262273 0)
(1.00199 -0.000456104 0)
(0.999687 -0.00208011 0)
(0.999875 -0.00262508 0)
(0.996784 -0.00636932 0)
(0.992263 -0.0024945 0)
(0.990019 -0.00306273 0)
(1.002 -0.00117614 0)
(0.998847 -0.00340176 0)
(0.994117 -0.00173709 0)
(0.993173 -0.00174664 0)
(0.999133 0.00404136 0)
(0.996347 -0.00643102 0)
(0.993858 0.00366833 0)
(0.996781 -0.00225871 0)
(0.99264 0.0017226 0)
(0.995832 0.00584036 0)
(1.00034 0.00256301 0)
(0.997385 0.00381231 0)
(0.999515 0.00403315 0)
(1.00285 0.00256993 0)
(1.00178 -0.000407077 0)
(0.999636 -0.00192184 0)
(0.999757 -0.0025498 0)
(0.996898 -0.00579905 0)
(0.992584 -0.00233715 0)
(0.990464 -0.00233775 0)
(1.00176 -0.0011443 0)
(0.99934 -0.00336912 0)
(0.994068 -0.00167368 0)
(0.993197 -0.00175695 0)
(0.998864 0.0039429 0)
(0.996419 -0.0062621 0)
(0.993214 0.00356601 0)
(0.996714 -0.00215827 0)
(0.992575 0.00167517 0)
(0.995382 0.00571363 0)
(0.99994 0.00251334 0)
(0.997049 0.00378359 0)
(0.999115 0.00388649 0)
(1.00248 0.00252065 0)
(1.00156 -0.00036946 0)
(0.999549 -0.00176791 0)
(0.999605 -0.00243872 0)
(0.996961 -0.00526931 0)
(0.99285 -0.00214678 0)
(0.990843 -0.00170335 0)
(1.00161 -0.00111117 0)
(0.999612 -0.00334184 0)
(0.99406 -0.00159934 0)
(0.993247 -0.00176482 0)
(0.998668 0.00383993 0)
(0.996501 -0.0060803 0)
(0.99289 0.00345629 0)
(0.996669 -0.00205291 0)
(0.992639 0.00161985 0)
(0.995116 0.00560349 0)
(0.999692 0.00244242 0)
(0.996868 0.00376778 0)
(0.998844 0.00372745 0)
(1.00218 0.00247618 0)
(1.00135 -0.000329748 0)
(0.999455 -0.00162821 0)
(0.99945 -0.00228791 0)
(0.997007 -0.00477766 0)
(0.993096 -0.00192922 0)
(0.991185 -0.00113686 0)
(1.00151 -0.00107531 0)
(0.999746 -0.00332009 0)
(0.994079 -0.00151623 0)
(0.993326 -0.00177069 0)
(0.998529 0.00373315 0)
(0.996572 -0.00588887 0)
(0.99278 0.00333848 0)
(0.996638 -0.00193792 0)
(0.992777 0.00155171 0)
(0.99498 0.00551007 0)
(0.999539 0.00235285 0)
(0.996794 0.00376056 0)
(0.998672 0.00356243 0)
(1.00194 0.00242039 0)
(1.00116 -0.000276028 0)
(0.999368 -0.001517 0)
(0.999309 -0.00209706 0)
(0.997053 -0.00430526 0)
(0.993341 -0.00170893 0)
(0.991507 -0.000630883 0)
(1.00144 -0.00103546 0)
(0.999807 -0.00330474 0)
(0.994116 -0.00142576 0)
(0.99343 -0.0017758 0)
(0.998434 0.00362364 0)
(0.99663 -0.00569001 0)
(0.992797 0.00321262 0)
(0.996617 -0.00181221 0)
(0.992955 0.00147053 0)
(0.994927 0.00543052 0)
(0.999445 0.00224795 0)
(0.996784 0.00375638 0)
(0.998567 0.00339717 0)
(1.00175 0.00234843 0)
(1.00099 -0.000195783 0)
(0.999292 -0.00142998 0)
(0.999187 -0.00188329 0)
(0.997104 -0.00384033 0)
(0.993593 -0.00149649 0)
(0.991823 -0.000178534 0)
(1.00138 -0.000991243 0)
(0.999834 -0.00329602 0)
(0.994163 -0.00132829 0)
(0.993549 -0.00178021 0)
(0.998366 0.00351155 0)
(0.996678 -0.00548509 0)
(0.99288 0.00307873 0)
(0.996605 -0.00167287 0)
(0.993156 0.00137221 0)
(0.994922 0.00536739 0)
(0.999385 0.00212758 0)
(0.996809 0.00375483 0)
(0.998496 0.00324459 0)
(1.00159 0.00225518 0)
(1.00083 -7.7457e-05 0)
(0.999225 -0.00135162 0)
(0.999085 -0.00166592 0)
(0.997159 -0.00336973 0)
(0.993856 -0.00129595 0)
(0.992138 0.000225312 0)
(1.00132 -0.000942341 0)
(0.99985 -0.00329413 0)
(0.994215 -0.0012242 0)
(0.993677 -0.00178391 0)
(0.998315 0.00339744 0)
(0.996723 -0.00527458 0)
(0.992991 0.0029347 0)
(0.996597 -0.00151836 0)
(0.993371 0.00125572 0)
(0.994939 0.00531938 0)
(0.99934 0.00199835 0)
(0.996851 0.00374388 0)
(0.998439 0.00311712 0)
(1.00145 0.00213556 0)
(1.00067 6.97465e-05 0)
(0.999164 -0.00126702 0)
(0.999003 -0.00145917 0)
(0.997216 -0.00288303 0)
(0.994125 -0.00110616 0)
(0.992458 0.000576336 0)
(1.00126 -0.000888488 0)
(0.999863 -0.00329898 0)
(0.99427 -0.00111499 0)
(0.99381 -0.00178668 0)
(0.998273 0.00328135 0)
(0.996767 -0.00505746 0)
(0.993115 0.002779 0)
(0.996592 -0.0013489 0)
(0.993595 0.00112288 0)
(0.994967 0.0052779 0)
(0.999302 0.00187091 0)
(0.996901 0.00371543 0)
(0.998384 0.00301618 0)
(1.00132 0.00197999 0)
(1.00052 0.000226925 0)
(0.999105 -0.00116384 0)
(0.998943 -0.00128281 0)
(0.997276 -0.00238919 0)
(0.994397 -0.000914997 0)
(0.992784 0.000881361 0)
(1.0012 -0.000829684 0)
(0.999878 -0.00331079 0)
(0.994328 -0.00100004 0)
(0.993946 -0.00178813 0)
(0.998238 0.00316228 0)
(0.996812 -0.00483234 0)
(0.993246 0.00261127 0)
(0.996587 -0.00116119 0)
(0.993827 0.000970704 0)
(0.994999 0.00524344 0)
(0.999266 0.00174672 0)
(0.996958 0.00366344 0)
(0.998323 0.00295017 0)
(1.00121 0.00180209 0)
(1.00038 0.000388432 0)
(0.999046 -0.00102923 0)
(0.998905 -0.00113932 0)
(0.997341 -0.00190656 0)
(0.994668 -0.00070418 0)
(0.99312 0.00112944 0)
(1.00114 -0.000765967 0)
(0.999897 -0.00332959 0)
(0.99439 -0.000879074 0)
(0.994084 -0.001786 0)
(0.998208 0.00303686 0)
(0.996859 -0.0045962 0)
(0.993381 0.00242962 0)
(0.996581 -0.000959653 0)
(0.994064 0.000808638 0)
(0.995037 0.0052085 0)
(0.999229 0.00163307 0)
(0.997022 0.0035715 0)
(0.998257 0.0029328 0)
(1.0011 0.00161556 0)
(1.00026 0.000546457 0)
(0.998984 -0.000850942 0)
(0.998888 -0.00101575 0)
(0.997415 -0.0014596 0)
(0.994934 -0.000454261 0)
(0.993462 0.00131232 0)
(1.00107 -0.000697309 0)
(0.999919 -0.00335425 0)
(0.994455 -0.000755307 0)
(0.994222 -0.00177918 0)
(0.998183 0.0029051 0)
(0.996909 -0.00434936 0)
(0.993523 0.00223349 0)
(0.996576 -0.000745788 0)
(0.994308 0.000642041 0)
(0.995079 0.00516446 0)
(0.999188 0.0015446 0)
(0.997096 0.00343639 0)
(0.998184 0.00295601 0)
(1.001 0.00142746 0)
(1.00015 0.00069269 0)
(0.998918 -0.000624908 0)
(0.998887 -0.000897183 0)
(0.997503 -0.00105847 0)
(0.99519 -0.000170238 0)
(0.993807 0.00144902 0)
(1.00101 -0.000624331 0)
(0.999947 -0.0033844 0)
(0.994524 -0.000628571 0)
(0.994361 -0.00176669 0)
(0.998165 0.00276623 0)
(0.996959 -0.00409031 0)
(0.993672 0.00202375 0)
(0.996571 -0.000521552 0)
(0.994556 0.000472078 0)
(0.99513 0.00510764 0)
(0.999142 0.00148901 0)
(0.99718 0.00325718 0)
(0.998106 0.00300022 0)
(1.00091 0.00125264 0)
(1.00006 0.000807471 0)
(0.998849 -0.000353718 0)
(0.998898 -0.000775399 0)
(0.997609 -0.000714388 0)
(0.995438 0.000131782 0)
(0.994148 0.00156316 0)
(1.00094 -0.000546581 0)
(0.999978 -0.00342012 0)
(0.994599 -0.000502126 0)
(0.994501 -0.00174391 0)
(0.998152 0.00261444 0)
(0.997011 -0.00381311 0)
(0.993828 0.00179718 0)
(0.996567 -0.000292223 0)
(0.994808 0.000309351 0)
(0.99519 0.00502311 0)
(0.999089 0.00146929 0)
(0.997275 0.00304275 0)
(0.998027 0.00305637 0)
(1.00082 0.00111574 0)
(1 0.000872901 0)
(0.998778 -5.94484e-05 0)
(0.998913 -0.000637926 0)
(0.997734 -0.00043355 0)
(0.995679 0.000435854 0)
(0.994479 0.00168143 0)
(1.00088 -0.000464474 0)
(1.00001 -0.00345945 0)
(0.99468 -0.000378354 0)
(0.99464 -0.00171002 0)
(0.998148 0.00244954 0)
(0.997062 -0.00351691 0)
(0.993993 0.00155809 0)
(0.996564 -6.56491e-05 0)
(0.995061 0.000162527 0)
(0.995262 0.00490124 0)
(0.99903 0.00149016 0)
(0.99738 0.0028049 0)
(0.99795 0.00312016 0)
(1.00072 0.00102632 0)
(0.999966 0.000895702 0)
(0.998712 0.000241974 0)
(0.998928 -0.000473265 0)
(0.997879 -0.000204967 0)
(0.99592 0.00073291 0)
(0.994795 0.00182234 0)
(1.00081 -0.000379802 0)
(1.00006 -0.0035001 0)
(0.994768 -0.000258725 0)
(0.994779 -0.00166026 0)
(0.998152 0.00226982 0)
(0.997112 -0.00320213 0)
(0.994166 0.00130843 0)
(0.996566 0.000153965 0)
(0.995314 3.997e-05 0)
(0.99535 0.00473748 0)
(0.998964 0.00155144 0)
(0.997495 0.00255444 0)
(0.99788 0.00317478 0)
(1.00062 0.000988196 0)
(0.99996 0.000890561 0)
(0.998657 0.000535105 0)
(0.998937 -0.000274179 0)
(0.998042 -2.29709e-05 0)
(0.996166 0.00100309 0)
(0.995089 0.00199839 0)
(1.00074 -0.000291654 0)
(1.0001 -0.00354253 0)
(0.994865 -0.000148609 0)
(0.994916 -0.00159076 0)
(0.998165 0.00207213 0)
(0.99716 -0.00287036 0)
(0.994346 0.00105418 0)
(0.996573 0.00036604 0)
(0.995564 -4.8217e-05 0)
(0.995453 0.00453094 0)
(0.998894 0.001645 0)
(0.997617 0.00230678 0)
(0.997823 0.00320005 0)
(1.00052 0.00101918 0)
(0.999979 0.000864758 0)
(0.998616 0.000804058 0)
(0.998938 -3.90102e-05 0)
(0.998217 0.000137219 0)
(0.996429 0.00123226 0)
(0.995363 0.00220124 0)
(1.00068 -0.000200645 0)
(1.00015 -0.00358497 0)
(0.99497 -4.85026e-05 0)
(0.995052 -0.00149825 0)
(0.99819 0.00185407 0)
(0.997208 -0.00252505 0)
(0.994532 0.00080732 0)
(0.996589 0.000552701 0)
(0.995806 -9.32806e-05 0)
(0.995573 0.00428443 0)
(0.998821 0.00175502 0)
(0.997744 0.00208641 0)
(0.997784 0.00318668 0)
(1.0004 0.00109293 0)
(1.00002 0.000825599 0)
(0.998599 0.00104064 0)
(0.998931 0.000221222 0)
(0.998399 0.000281116 0)
(0.996709 0.00140368 0)
(0.995621 0.00240785 0)
(1.00061 -0.000109282 0)
(1.00021 -0.00362333 0)
(0.995086 3.78548e-05 0)
(0.995184 -0.0013788 0)
(0.998227 0.00162043 0)
(0.997257 -0.00217512 0)
(0.994722 0.000574263 0)
(0.996615 0.00070146 0)
(0.99604 -9.69035e-05 0)
(0.99571 0.00400884 0)
(0.99875 0.00187395 0)
(0.997871 0.00189551 0)
(0.997763 0.00314518 0)
(1.00029 0.00120032 0)
(1.00007 0.000797302 0)
(0.998609 0.00123231 0)
(0.998915 0.000495301 0)
(0.998579 0.000416297 0)
(0.997013 0.0015162 0)
(0.995876 0.00260329 0)
(1.00055 -1.7539e-05 0)
(1.00027 -0.00365529 0)
(0.995214 0.000101903 0)
(0.995313 -0.00123266 0)
(0.998276 0.00137651 0)
(0.997307 -0.00182744 0)
(0.994914 0.000365589 0)
(0.996655 0.000803116 0)
(0.996265 -5.71714e-05 0)
(0.995862 0.00371887 0)
(0.998683 0.00198654 0)
(0.997998 0.00174322 0)
(0.997764 0.00308341 0)
(1.00017 0.00133051 0)
(1.00013 0.000786049 0)
(0.998648 0.00138276 0)
(0.998897 0.000773601 0)
(0.998749 0.000566741 0)
(0.997338 0.00158418 0)
(0.996142 0.0027587 0)
(1.00048 7.35039e-05 0)
(1.00033 -0.00367929 0)
(0.995355 0.000141746 0)
(0.995436 -0.00105905 0)
(0.998336 0.00112447 0)
(0.997361 -0.00149104 0)
(0.995106 0.000196597 0)
(0.996709 0.000850778 0)
(0.99648 2.40834e-05 0)
(0.996027 0.00342318 0)
(0.998624 0.00207343 0)
(0.998122 0.00164305 0)
(0.997786 0.00299958 0)
(1.00004 0.00146641 0)
(1.0002 0.000789515 0)
(0.998718 0.00149158 0)
(0.998881 0.00104813 0)
(0.998902 0.00073612 0)
(0.997678 0.00162393 0)
(0.996437 0.0028481 0)
(1.00042 0.0001621 0)
(1.0004 -0.00369107 0)
(0.995511 0.000155639 0)
(0.995555 -0.000860115 0)
(0.998406 0.000871332 0)
(0.997421 -0.00117465 0)
(0.995294 7.43836e-05 0)
(0.99678 0.000849181 0)
(0.996689 0.000128232 0)
(0.996201 0.00314362 0)
(0.998577 0.00213001 0)
(0.998242 0.00157656 0)
(0.997828 0.00290749 0)
(0.999926 0.00160368 0)
(1.00027 0.000813363 0)
(0.998819 0.00156746 0)
(0.998874 0.00130715 0)
(0.999036 0.000926346 0)
(0.998019 0.00166214 0)
(0.996766 0.00286915 0)
(1.00036 0.000247423 0)
(1.00047 -0.00368698 0)
(0.995683 0.000139019 0)
(0.995668 -0.00064215 0)
(0.998485 0.000627378 0)
(0.997488 -0.000892602 0)
(0.995475 9.30803e-06 0)
(0.996867 0.000804358 0)
(0.996894 0.000240796 0)
(0.996382 0.00289597 0)
(0.998543 0.00215622 0)
(0.998362 0.00153939 0)
(0.997891 0.00282054 0)
(0.999813 0.00173522 0)
(1.00034 0.000853494 0)
(0.998948 0.00161354 0)
(0.998882 0.00154105 0)
(0.999151 0.00112101 0)
(0.998352 0.00171405 0)
(0.997129 0.00284166 0)
(1.0003 0.000327296 0)
(1.00054 -0.00366332 0)
(0.995873 9.17877e-05 0)
(0.995778 -0.000412304 0)
(0.99857 0.000397946 0)
(0.997568 -0.000652715 0)
(0.995649 3.94319e-06 0)
(0.996966 0.000726309 0)
(0.997098 0.000350004 0)
(0.996567 0.00268957 0)
(0.998523 0.00216008 0)
(0.998481 0.00151794 0)
(0.997971 0.00273588 0)
(0.999707 0.00186514 0)
(1.0004 0.000909638 0)
(0.999105 0.00163351 0)
(0.99891 0.00174961 0)
(0.999251 0.00131592 0)
(0.998667 0.00178043 0)
(0.997513 0.00279941 0)
(1.00024 0.000400344 0)
(1.00061 -0.0036168 0)
(0.99608 1.97432e-05 0)
(0.995884 -0.000177267 0)
(0.998658 0.00019307 0)
(0.99766 -0.000459631 0)
(0.995813 4.85616e-05 0)
(0.997075 0.000634551 0)
(0.997305 0.000434256 0)
(0.996754 0.00252915 0)
(0.998513 0.00215415 0)
(0.998602 0.00149988 0)
(0.998071 0.00264809 0)
(0.99961 0.00199432 0)
(1.00045 0.000989072 0)
(0.999286 0.00162917 0)
(0.998961 0.00193028 0)
(0.999338 0.00151459 0)
(0.998963 0.00184645 0)
(0.997905 0.00276276 0)
(1.00019 0.000466623 0)
(1.00068 -0.00354434 0)
(0.996305 -7.79092e-05 0)
(0.995989 6.06772e-05 0)
(0.998747 1.95911e-05 0)
(0.997768 -0.000318642 0)
(0.99597 0.00013744 0)
(0.99719 0.000549816 0)
(0.997517 0.000482614 0)
(0.996946 0.00240258 0)
(0.998512 0.00214638 0)
(0.998721 0.00148392 0)
(0.998192 0.00255128 0)
(0.999526 0.00211269 0)
(1.00049 0.00109306 0)
(0.999486 0.00160574 0)
(0.999044 0.00207461 0)
(0.999413 0.0017193 0)
(0.999236 0.00189805 0)
(0.998296 0.00271744 0)
(1.00014 0.000522474 0)
(1.00075 -0.00343904 0)
(0.996547 -0.000204154 0)
(0.996093 0.000289245 0)
(0.998832 -0.000112655 0)
(0.997891 -0.000228415 0)
(0.996119 0.000256265 0)
(0.997304 0.000484445 0)
(0.997736 0.000499555 0)
(0.997144 0.00229242 0)
(0.998517 0.00214683 0)
(0.998838 0.00147768 0)
(0.998332 0.00245156 0)
(0.999461 0.00221018 0)
(1.00052 0.00121436 0)
(0.999699 0.00158342 0)
(0.999163 0.00217096 0)
(0.999478 0.00192878 0)
(0.99948 0.00196236 0)
(0.998682 0.00266419 0)
(1.00009 0.000568594 0)
(1.00081 -0.00329933 0)
(0.996805 -0.000353901 0)
(0.9962 0.000492418 0)
(0.99891 -0.000196445 0)
(0.998029 -0.000182348 0)
(0.996264 0.000390431 0)
(0.997413 0.000453949 0)
(0.997959 0.000493935 0)
(0.99735 0.00218781 0)
(0.998529 0.00216012 0)
(0.998948 0.0014846 0)
(0.998488 0.002351 0)
(0.999417 0.00228693 0)
(1.00053 0.00134737 0)
(0.999916 0.00157288 0)
(0.999321 0.00222301 0)
(0.999547 0.00212132 0)
(0.99969 0.00205691 0)
(0.999054 0.00260645 0)
(1.00005 0.000602673 0)
(1.00086 -0.00312055 0)
(0.997074 -0.000524133 0)
(0.996312 0.000661396 0)
(0.998979 -0.000232835 0)
(0.998179 -0.000171467 0)
(0.996408 0.000523998 0)
(0.997514 0.000465292 0)
(0.998182 0.000475545 0)
(0.997567 0.0020831 0)
(0.998549 0.00218079 0)
(0.999049 0.00150459 0)
(0.998657 0.00224882 0)
(0.999397 0.00234259 0)
(1.00053 0.00149147 0)
(1.00013 0.00157697 0)
(0.999512 0.00224442 0)
(0.999629 0.00227966 0)
(0.999866 0.0021692 0)
(0.999397 0.0025601 0)
(1.00001 0.000624016 0)
(1.0009 -0.0029073 0)
(0.997351 -0.000704259 0)
(0.996432 0.000788576 0)
(0.999036 -0.000225767 0)
(0.998339 -0.000182774 0)
(0.996553 0.000640813 0)
(0.997602 0.000512445 0)
(0.998401 0.000457475 0)
(0.997796 0.0019712 0)
(0.998579 0.00219473 0)
(0.999138 0.00154393 0)
(0.998835 0.00215639 0)
(0.999403 0.00237713 0)
(1.00053 0.00163721 0)
(1.00033 0.00158822 0)
(0.999732 0.00223316 0)
(0.99973 0.00240667 0)
(1.00002 0.0022889 0)
(0.999703 0.00254351 0)
(0.999975 0.00063503 0)
(1.00092 -0.00267029 0)
(0.997631 -0.000882298 0)
(0.996562 0.000867862 0)
(0.999082 -0.000180554 0)
(0.998505 -0.000206256 0)
(0.996703 0.000733223 0)
(0.997678 0.000585514 0)
(0.99861 0.000458381 0)
(0.998034 0.00185744 0)
(0.998622 0.00219813 0)
(0.999216 0.00158913 0)
(0.999016 0.0020762 0)
(0.999436 0.00239096 0)
(1.00051 0.00177692 0)
(1.00051 0.0016178 0)
(0.999977 0.00219556 0)
(0.999859 0.00249589 0)
(1.00015 0.0024111 0)
(0.99997 0.00254182 0)
(0.999945 0.000633364 0)
(1.00093 -0.00241573 0)
(0.997908 -0.00104656 0)
(0.996704 0.000899091 0)
(0.999117 -0.000107035 0)
(0.998671 -0.000230382 0)
(0.996859 0.000797449 0)
(0.997744 0.000674978 0)
(0.998804 0.000476766 0)
(0.998278 0.00175608 0)
(0.998677 0.00219613 0)
(0.999284 0.00163222 0)
(0.999196 0.00200752 0)
(0.999494 0.00239246 0)
(1.0005 0.00190858 0)
(1.00067 0.00166358 0)
(1.00023 0.00214068 0)
(1.00002 0.00253173 0)
(1.00026 0.00253181 0)
(1.0002 0.00256153 0)
(0.999918 0.000621588 0)
(1.00093 -0.00215358 0)
(0.998177 -0.00118334 0)
(0.996858 0.000886616 0)
(0.999143 -1.83568e-05 0)
(0.998833 -0.000240837 0)
(0.997021 0.000838235 0)
(0.997801 0.000772865 0)
(0.998982 0.000511194 0)
(0.998524 0.00166597 0)
(0.998743 0.00218571 0)
(0.999341 0.0016738 0)
(0.999375 0.00193917 0)
(0.999575 0.00238356 0)
(1.00049 0.00203781 0)
(1.0008 0.00173062 0)
(1.00049 0.00208146 0)
(1.00022 0.00251393 0)
(1.00038 0.00262011 0)
(1.00038 0.00261111 0)
(0.999896 0.000602074 0)
(1.00091 -0.00189233 0)
(0.998435 -0.00128511 0)
(0.997022 0.000836213 0)
(0.999161 7.64361e-05 0)
(0.998989 -0.000238516 0)
(0.997189 0.000869774 0)
(0.997852 0.000865074 0)
(0.999141 0.000555238 0)
(0.998768 0.00159438 0)
(0.998819 0.00217889 0)
(0.999385 0.00171561 0)
(0.999548 0.00186203 0)
(0.999685 0.00234924 0)
(1.00048 0.00215364 0)
(1.00089 0.00182559 0)
(1.00073 0.00204001 0)
(1.00045 0.00245962 0)
(1.00053 0.00265628 0)
(1.00053 0.00267874 0)
(0.999877 0.000576187 0)
(1.00088 -0.00163959 0)
(0.998678 -0.00134475 0)
(0.997196 0.000754765 0)
(0.999174 0.00016943 0)
(0.999138 -0.000223043 0)
(0.997361 0.000896829 0)
(0.997895 0.000956386 0)
(0.999284 0.000592367 0)
(0.99901 0.00153522 0)
(0.998902 0.00218789 0)
(0.999412 0.00176866 0)
(0.999709 0.00178834 0)
(0.999821 0.00228511 0)
(1.00049 0.00224483 0)
(1.00095 0.00193192 0)
(1.00095 0.00202514 0)
(1.00069 0.00238223 0)
(1.00071 0.00263421 0)
(1.00066 0.00272733 0)
(0.999863 0.000545642 0)
(1.00084 -0.00140057 0)
(0.998902 -0.00136396 0)
(0.997378 0.00065686 0)
(0.999184 0.000245395 0)
(0.999278 -0.000194068 0)
(0.997538 0.000915924 0)
(0.99793 0.00105403 0)
(0.999405 0.000628187 0)
(0.999254 0.00146834 0)
(0.998995 0.00220912 0)
(0.999417 0.00184631 0)
(0.999848 0.00172515 0)
(0.999979 0.00218469 0)
(1.00053 0.00230887 0)
(1.001 0.00204848 0)
(1.00112 0.00203845 0)
(1.00093 0.00230762 0)
(1.00091 0.00256136 0)
(1.0008 0.00272356 0)
(0.999852 0.000512607 0)
(1.00079 -0.00118036 0)
(0.999106 -0.00134573 0)
(0.997565 0.000550804 0)
(0.999195 0.000299568 0)
(0.99941 -0.000158562 0)
(0.997719 0.000932943 0)
(0.997957 0.00115344 0)
(0.999504 0.000665768 0)
(0.9995 0.00138715 0)
(0.999104 0.0022278 0)
(0.999401 0.00195878 0)
(0.999951 0.00169505 0)
(1.00016 0.0020522 0)
(1.0006 0.00232017 0)
(1.00102 0.00216328 0)
(1.00125 0.00207486 0)
(1.00113 0.00225414 0)
(1.00112 0.00246711 0)
(1.00097 0.00265887 0)
(0.999845 0.000478405 0)
(1.00074 -0.000982009 0)
(0.999289 -0.00129617 0)
(0.997752 0.000447717 0)
(0.999207 0.000338948 0)
(0.999535 -0.000124236 0)
(0.997906 0.000940649 0)
(0.997977 0.00126163 0)
(0.999574 0.000712246 0)
(0.999745 0.00128128 0)
(0.999241 0.00222858 0)
(0.99937 0.00209642 0)
(1 0.00171722 0)
(1.00033 0.00192117 0)
(1.00071 0.00226693 0)
(1.00106 0.00225452 0)
(1.00134 0.00213659 0)
(1.0013 0.00221822 0)
(1.00132 0.00237825 0)
(1.00116 0.00254383 0)
(0.999842 0.000444004 0)
(1.00067 -0.000806342 0)
(0.999452 -0.00122255 0)
(0.997939 0.000359202 0)
(0.999222 0.00036014 0)
(0.999652 -9.37615e-05 0)
(0.998101 0.000937188 0)
(0.997995 0.00137065 0)
(0.999608 0.000781178 0)
(0.999986 0.0011554 0)
(0.999413 0.00219139 0)
(0.999336 0.00224313 0)
(1 0.00179025 0)
(1.00048 0.00181827 0)
(1.00085 0.00216154 0)
(1.00111 0.00229539 0)
(1.00139 0.00221589 0)
(1.00143 0.00220298 0)
(1.00149 0.00230733 0)
(1.00135 0.00241652 0)
(0.999842 0.000410366 0)
(1.00061 -0.000651769 0)
(0.999597 -0.00113583 0)
(0.998121 0.00029097 0)
(0.999239 0.000375559 0)
(0.999766 -7.35928e-05 0)
(0.998306 0.000921552 0)
(0.998016 0.00147526 0)
(0.999604 0.000882333 0)
(1.00021 0.00103233 0)
(0.999628 0.00209062 0)
(0.999316 0.00238452 0)
(0.999952 0.00192663 0)
(1.00058 0.00176092 0)
(1.00102 0.00203393 0)
(1.00121 0.00227214 0)
(1.00144 0.00228332 0)
(1.00151 0.00221815 0)
(1.00161 0.00224809 0)
(1.00151 0.00231152 0)
(0.999846 0.000377318 0)
(1.00055 -0.000517101 0)
(0.999725 -0.00104171 0)
(0.998298 0.000242904 0)
(0.999255 0.000389154 0)
(0.999873 -5.71443e-05 0)
(0.998526 0.000884754 0)
(0.998048 0.00156453 0)
(0.999561 0.00101729 0)
(1.0004 0.000937832 0)
(0.999887 0.00191995 0)
(0.99934 0.00247599 0)
(0.999856 0.00211201 0)
(1.00061 0.00176576 0)
(1.00118 0.00190712 0)
(1.00134 0.00219285 0)
(1.00149 0.0023056 0)
(1.00156 0.00225502 0)
(1.0017 0.00219817 0)
(1.00163 0.00222484 0)
(0.999853 0.000346117 0)
(1.00049 -0.000400801 0)
(0.99984 -0.000945025 0)
(0.998471 0.000209409 0)
(0.999271 0.000408188 0)
(0.999972 -4.49921e-05 0)
(0.998757 0.00082595 0)
(0.998101 0.00163247 0)
(0.999489 0.00117301 0)
(1.00054 0.000888815 0)
(1.00018 0.00170358 0)
(0.999429 0.00248468 0)
(0.999743 0.00230267 0)
(1.00057 0.00184968 0)
(1.00131 0.00180664 0)
(1.00151 0.00207106 0)
(1.00158 0.00227287 0)
(1.00158 0.00228381 0)
(1.00173 0.00217475 0)
(1.0017 0.00213946 0)
(0.999863 0.000313707 0)
(1.00043 -0.000293031 0)
(0.999943 -0.000853661 0)
(0.998641 0.000187968 0)
(0.999283 0.00044185 0)
(1.00006 -3.14009e-05 0)
(0.999002 0.00074309 0)
(0.998184 0.00167256 0)
(0.999396 0.00133813 0)
(1.00062 0.00089658 0)
(1.00047 0.00147858 0)
(0.999595 0.00240119 0)
(0.99965 0.00246547 0)
(1.00047 0.00199355 0)
(1.00137 0.00176539 0)
(1.00167 0.0019273 0)
(1.00171 0.00218264 0)
(1.0016 0.00227754 0)
(1.00173 0.00217441 0)
(1.00174 0.00206371 0)
(0.999875 0.000281278 0)
(1.00037 -0.000194737 0)
(1.00003 -0.000765043 0)
(0.99881 0.000173325 0)
(0.999296 0.000484198 0)
(1.00013 -1.94541e-06 0)
(0.999256 0.000646801 0)
(0.998304 0.00166998 0)
(0.999296 0.00149827 0)
(1.00064 0.000969212 0)
(1.00075 0.0012818 0)
(0.999838 0.00221368 0)
(0.999608 0.00256531 0)
(1.00031 0.00215964 0)
(1.00134 0.00178787 0)
(1.00181 0.00180437 0)
(1.00188 0.00203286 0)
(1.00167 0.00221713 0)
(1.00169 0.00217398 0)
(1.00172 0.00201346 0)
(0.999889 0.000248817 0)
(1.00031 -0.00010353 0)
(1.00011 -0.000681328 0)
(0.998979 0.000158536 0)
(0.999311 0.00053699 0)
(1.00018 4.43076e-05 0)
(0.999513 0.000544627 0)
(0.998465 0.00162747 0)
(0.999208 0.00163811 0)
(1.00059 0.00108662 0)
(1.00098 0.00114989 0)
(1.00014 0.00196007 0)
(0.999652 0.00255904 0)
(1.00014 0.0023271 0)
(1.00124 0.00185967 0)
(1.00188 0.00172742 0)
(1.00204 0.00186867 0)
(1.00178 0.00208383 0)
(1.00167 0.00215106 0)
(1.00166 0.00198934 0)
(0.999905 0.00021551 0)
(1.00026 -1.86697e-05 0)
(1.00017 -0.000597606 0)
(0.999149 0.000139835 0)
(0.999331 0.000589809 0)
(1.0002 0.000116781 0)
(0.999763 0.00044421 0)
(0.99867 0.00153867 0)
(0.999146 0.00174998 0)
(1.0005 0.00122318 0)
(1.00113 0.00108839 0)
(1.00046 0.00170637 0)
(0.999797 0.00242847 0)
(0.999991 0.00244784 0)
(1.00107 0.00197519 0)
(1.00188 0.00168631 0)
(1.00218 0.00173599 0)
(1.00194 0.00190397 0)
(1.0017 0.00206638 0)
(1.00159 0.00198125 0)
(0.999921 0.000183835 0)
(1.00021 5.5287e-05 0)
(1.00022 -0.000509356 0)
(0.999316 0.000114493 0)
(0.999361 0.000636256 0)
(1.0002 0.000214546 0)
(0.999992 0.000362126 0)
(0.998915 0.00140711 0)
(0.999124 0.00181828 0)
(1.00037 0.00136874 0)
(1.00121 0.00108953 0)
(1.00077 0.00149009 0)
(1.00003 0.00221325 0)
(0.999923 0.00247254 0)
(1.00085 0.00211188 0)
(1.00179 0.00169743 0)
(1.00225 0.00163113 0)
(1.0021 0.00174168 0)
(1.0018 0.00191632 0)
(1.00154 0.00195331 0)
(0.999937 0.000153754 0)
(1.00017 0.000118996 0)
(1.00026 -0.000416199 0)
(0.999479 8.53848e-05 0)
(0.999405 0.000666678 0)
(1.00018 0.000330506 0)
(1.00019 0.000312035 0)
(0.999191 0.00124915 0)
(0.999154 0.00183139 0)