/*--------------------------------*- C++ -*----------------------------------*\
| =========                 |                                                 |
| \\      /  F ield         | OpenFOAM: The Open Source CFD Toolbox           |
|  \\    /   O peration     | Version:  2106                                  |
|   \\  /    A nd           | Website:  www.openfoam.com                      |
|    \\/     M anipulation  |                                                 |
\*---------------------------------------------------------------------------*/
FoamFile
{
    version     2.0;
    format      ascii;
    arch        "LSB;label=32;scalar=64";
    class       surfaceScalarField;
    location    "0.495";
    object      phi;
}
// * * * * * * * * * * * * * * * * * * * * * * * * * * * * * * * * * * * * * //

dimensions      [0 3 -1 0 0 0 0];

oriented        oriented;

internalField   nonuniform List<scalar> 
19000
(
1.17033e-06
-9.91733e-07
1.17264e-06
6.39955e-07
1.19084e-06
-6.46922e-08
1.19057e-06
1.99944e-08
1.20034e-06
2.24917e-07
1.17724e-06
1.99247e-07
1.17874e-06
6.33246e-08
1.19714e-06
-4.13956e-08
1.19413e-06
-3.3699e-07
1.19632e-06
-5.23047e-07
1.21978e-06
-1.2207e-07
1.19576e-06
-5.13018e-07
1.21109e-06
2.68072e-07
1.1709e-06
-1.53431e-07
1.18352e-06
2.37416e-07
1.16016e-06
1.20652e-07
1.17047e-06
1.73616e-07
1.16004e-06
2.23607e-07
1.16001e-06
1.37818e-07
7.53757e-08
1.13099e-06
1.23015e-06
-9.97623e-07
1.23515e-06
6.34952e-07
1.25254e-06
-8.20818e-08
1.25344e-06
1.90986e-08
1.25866e-06
2.19701e-07
1.24149e-06
2.16412e-07
1.23744e-06
6.73801e-08
1.25577e-06
-5.97336e-08
1.24899e-06
-3.30204e-07
1.25101e-06
-5.25067e-07
1.27182e-06
-1.42878e-07
1.25217e-06
-4.93371e-07
1.26038e-06
2.59862e-07
1.23291e-06
-1.25965e-07
1.22916e-06
2.41167e-07
1.22777e-06
1.22044e-07
1.21467e-06
1.86713e-07
1.23174e-06
2.06538e-07
1.20467e-06
1.64893e-07
6.3873e-08
1.21617e-06
1.29e-06
-1.00484e-06
1.30542e-06
6.19527e-07
1.31636e-06
-9.30184e-08
1.32172e-06
1.37428e-08
1.32123e-06
2.20189e-07
1.31123e-06
2.26411e-07
1.30103e-06
7.75843e-08
1.31468e-06
-7.33872e-08
1.30294e-06
-3.18468e-07
1.30623e-06
-5.28352e-07
1.32346e-06
-1.60106e-07
1.31238e-06
-4.82296e-07
1.31637e-06
2.55875e-07
1.30144e-06
-1.11039e-07
1.28934e-06
2.53265e-07
1.29483e-06
1.16559e-07
1.28086e-06
2.00686e-07
1.29156e-06
1.9583e-07
1.27962e-06
1.76839e-07
7.2141e-08
1.27135e-06
1.35027e-06
-1.01101e-06
1.37635e-06
5.93451e-07
1.37926e-06
-9.59327e-08
1.38937e-06
3.64148e-09
1.38559e-06
2.23968e-07
1.38005e-06
2.31944e-07
1.36704e-06
9.05958e-08
1.3723e-06
-7.86423e-08
1.35707e-06
-3.0324e-07
1.36058e-06
-5.31861e-07
1.37507e-06
-1.746e-07
1.37198e-06
-4.792e-07
1.3783e-06
2.49547e-07
1.37053e-06
-1.03269e-07
1.36174e-06
2.62055e-07
1.36411e-06
1.14188e-07
1.35812e-06
2.06684e-07
1.36069e-06
1.93252e-07
1.35643e-06
1.81104e-07
8.60153e-08
1.34255e-06
1.41156e-06
-1.01421e-06
1.44472e-06
5.60286e-07
1.44075e-06
-9.19636e-08
1.45319e-06
-8.79377e-09
1.44935e-06
2.27801e-07
1.44522e-06
2.3608e-07
1.43324e-06
1.02577e-07
1.4299e-06
-7.53093e-08
1.41336e-06
-2.86692e-07
1.41563e-06
-5.34136e-07
1.42764e-06
-1.86614e-07
1.42975e-06
-4.81301e-07
1.44129e-06
2.38007e-07
1.43774e-06
-9.97229e-08
1.43631e-06
2.6348e-07
1.43618e-06
1.14319e-07
1.43542e-06
2.07447e-07
1.43513e-06
1.93546e-07
1.43149e-06
1.84736e-07
1.01519e-07
1.41599e-06
1.475e-06
-1.01354e-06
1.51025e-06
5.25041e-07
1.50239e-06
-8.41022e-08
1.514e-06
-2.0407e-08
1.5119e-06
2.29905e-07
1.50784e-06
2.40136e-07
1.49908e-06
1.11339e-07
1.49019e-06
-6.64229e-08
1.47384e-06
-2.70338e-07
1.47415e-06
-5.34447e-07
1.4832e-06
-1.95666e-07
1.48741e-06
-4.8551e-07
1.50334e-06
2.22072e-07
1.50324e-06
-9.96193e-08
1.50866e-06
2.58065e-07
1.50844e-06
1.14532e-07
1.51067e-06
2.05215e-07
1.50896e-06
1.95265e-07
1.50542e-06
1.88271e-07
1.18679e-07
1.48826e-06
1.54171e-06
-1.00903e-06
1.57481e-06
4.91945e-07
1.56613e-06
-7.54219e-08
1.57481e-06
-2.90907e-08
1.57443e-06
2.30281e-07
1.57086e-06
2.43709e-07
1.56577e-06
1.1643e-07
1.55521e-06
-5.58673e-08
1.53993e-06
-2.55056e-07
1.5381e-06
-5.32614e-07
1.54389e-06
-2.01457e-07
1.54763e-06
-4.89246e-07
1.56582e-06
2.03876e-07
1.56833e-06
-1.02121e-07
1.57903e-06
2.47357e-07
1.57957e-06
1.13993e-07
1.58417e-06
2.00614e-07
1.58111e-06
1.9833e-07
1.57827e-06
1.91111e-07
1.36797e-07
1.56015e-06
1.61241e-06
-1.00132e-06
1.641e-06
4.63354e-07
1.6334e-06
-6.78159e-08
1.63866e-06
-3.43514e-08
1.63925e-06
2.2969e-07
1.63713e-06
2.45827e-07
1.63525e-06
1.18306e-07
1.6258e-06
-4.64149e-08
1.61206e-06
-2.41311e-07
1.60817e-06
-5.28723e-07
1.61092e-06
-2.04211e-07
1.6125e-06
-4.9083e-07
1.63101e-06
1.85369e-07
1.63467e-06
-1.05785e-07
1.649e-06
2.3303e-07
1.64991e-06
1.13086e-07
1.65656e-06
1.93962e-07
1.65236e-06
2.02526e-07
1.65056e-06
1.92915e-07
1.54694e-07
1.63266e-06
1.68746e-06
-9.91205e-07
1.711e-06
4.39819e-07
1.70501e-06
-6.18242e-08
1.70751e-06
-3.68528e-08
1.70851e-06
2.2869e-07
1.70847e-06
2.45868e-07
1.70903e-06
1.17746e-07
1.7019e-06
-3.92844e-08
1.68977e-06
-2.2919e-07
1.68408e-06
-5.23028e-07
1.68438e-06
-2.04511e-07
1.68302e-06
-4.89465e-07
1.70062e-06
1.67763e-07
1.70384e-06
-1.09004e-07
1.72021e-06
2.16661e-07
1.72067e-06
1.12621e-07
1.72893e-06
1.85702e-07
1.724e-06
2.07463e-07
1.72328e-06
1.9363e-07
1.71244e-07
1.70673e-06
1.76697e-06
-9.79457e-07
1.78602e-06
4.20769e-07
1.78136e-06
-5.71583e-08
1.78215e-06
-3.76467e-08
1.78344e-06
2.27401e-07
1.78554e-06
2.43765e-07
1.78766e-06
1.15632e-07
1.78301e-06
-3.46396e-08
1.77234e-06
-2.18512e-07
1.76513e-06
-5.15823e-07
1.76367e-06
-2.03049e-07
1.7592e-06
-4.84994e-07
1.77542e-06
1.5154e-07
1.7769e-06
-1.1048e-07
1.79405e-06
1.99513e-07
1.79333e-06
1.13338e-07
1.80267e-06
1.76364e-07
1.79741e-06
2.12716e-07
1.79758e-06
1.93464e-07
1.8555e-07
1.78327e-06
1.85091e-06
-9.66621e-07
1.86649e-06
4.05195e-07
1.86262e-06
-5.32924e-08
1.86261e-06
-3.7633e-08
1.86425e-06
2.25757e-07
1.86823e-06
2.39788e-07
1.87106e-06
1.12803e-07
1.8686e-06
-3.21851e-08
1.85913e-06
-2.09042e-07
1.85065e-06
-5.0734e-07
1.84805e-06
-2.0045e-07
1.84065e-06
-4.776e-07
1.85549e-06
1.36702e-07
1.85443e-06
-1.09421e-07
1.87151e-06
1.82439e-07
1.86916e-06
1.15684e-07
1.87904e-06
1.6649e-07
1.8739e-06
2.17857e-07
1.87451e-06
1.92847e-07
1.96954e-07
1.86311e-06
1.93921e-06
-9.52989e-07
1.95234e-06
3.92067e-07
1.94883e-06
-4.97885e-08
1.94858e-06
-3.73859e-08
1.95057e-06
2.23767e-07
1.95607e-06
2.34291e-07
1.95896e-06
1.09913e-07
1.95828e-06
-3.15037e-08
1.94985e-06
-2.00612e-07
1.94023e-06
-4.97721e-07
1.937e-06
-1.97217e-07
1.92699e-06
-4.67587e-07
1.94067e-06
1.23017e-07
1.93678e-06
-1.05531e-07
1.9533e-06
1.65924e-07
1.94923e-06
1.19753e-07
1.95913e-06
1.56585e-07
1.95453e-06
2.22454e-07
1.95507e-06
1.92312e-07
2.05054e-07
1.94697e-06
2.03184e-06
-9.38635e-07
2.04343e-06
3.80477e-07
2.03999e-06
-4.63526e-08
2.03982e-06
-3.72206e-08
2.04201e-06
2.21585e-07
2.04872e-06
2.27576e-07
2.05128e-06
1.07352e-07
2.05195e-06
-3.21701e-08
2.04446e-06
-1.9312e-07
2.0338e-06
-4.87066e-07
2.03032e-06
-1.93734e-07
2.01801e-06
-4.5528e-07
2.03088e-06
1.1015e-07
2.02426e-06
-9.89082e-08
2.04001e-06
1.50167e-07
2.03443e-06
1.25335e-07
2.0439e-06
1.47116e-07
2.04028e-06
2.26073e-07
2.04021e-06
1.92383e-07
2.09735e-07
2.03553e-06
2.12887e-06
-9.23505e-07
2.13969e-06
3.69658e-07
2.13611e-06
-4.27686e-08
2.13621e-06
-3.73212e-08
2.13835e-06
2.19438e-07
2.14606e-06
2.19868e-07
2.14816e-06
1.05255e-07
2.14977e-06
-3.37789e-08
2.1431e-06
-1.86455e-07
2.13151e-06
-4.75471e-07
2.12806e-06
-1.90284e-07
2.11378e-06
-4.41001e-07
2.12619e-06
9.77382e-08
2.1172e-06
-8.99205e-08
2.13219e-06
1.35175e-07
2.12554e-06
1.31992e-07
2.13414e-06
1.38511e-07
2.1319e-06
2.28312e-07
2.13085e-06
1.93438e-07
2.1124e-07
2.12934e-06
2.23049e-06
-9.07511e-07
2.24118e-06
3.58972e-07
2.23724e-06
-3.88337e-08
2.23775e-06
-3.78281e-08
2.23965e-06
2.17536e-07
2.24819e-06
2.11335e-07
2.24985e-06
1.03591e-07
2.25204e-06
-3.5968e-08
2.24606e-06
-1.8047e-07
2.23362e-06
-4.63032e-07
2.23041e-06
-1.87076e-07
2.21447e-06
-4.25059e-07
2.22676e-06
8.54404e-08
2.21593e-06
-7.90837e-08
2.23023e-06
1.20876e-07
2.22307e-06
1.39144e-07
2.23041e-06
1.31171e-07
2.22988e-06
2.28843e-07
2.22774e-06
1.95578e-07
2.10196e-07
2.22879e-06
2.33695e-06
-8.90585e-07
2.34801e-06
3.47914e-07
2.34352e-06
-3.43442e-08
2.34456e-06
-3.88661e-08
2.34607e-06
2.16017e-07
2.3553e-06
2.02108e-07
2.35663e-06
1.02258e-07
2.35911e-06
-3.84414e-08
2.35365e-06
-1.75008e-07
2.34043e-06
-4.4982e-07
2.33761e-06
-1.84258e-07
2.32029e-06
-4.07732e-07
2.33273e-06
7.29966e-08
2.3206e-06
-6.69565e-08
2.33426e-06
1.07224e-07
2.32724e-06
1.46157e-07
2.33294e-06
1.25477e-07
2.33434e-06
2.27444e-07
2.33125e-06
1.98667e-07
2.07446e-07
2.334e-06
2.44851e-06
-8.72695e-07
2.46031e-06
3.36114e-07
2.45508e-06
-2.91145e-08
2.45675e-06
-4.05404e-08
2.45781e-06
2.14953e-07
2.46763e-06
1.92295e-07
2.46874e-06
1.01149e-07
2.47127e-06
-4.09732e-08
2.46621e-06
-1.69954e-07
2.45225e-06
-4.35857e-07
2.44993e-06
-1.81934e-07
2.43146e-06
-3.89259e-07
2.44417e-06
6.0282e-08
2.4313e-06
-5.40825e-08
2.44423e-06
9.42904e-08
2.43796e-06
1.52424e-07
2.44169e-06
1.21747e-07
2.44508e-06
2.24057e-07
2.44135e-06
2.02395e-07
2.03835e-07
2.44496e-06
2.56543e-06
-8.53831e-07
2.57821e-06
3.2333e-07
2.5721e-06
-2.29997e-08
2.57449e-06
-4.2927e-08
2.57508e-06
2.14364e-07
2.58538e-06
1.81985e-07
2.58636e-06
1.00169e-07
2.58878e-06
-4.33897e-08
2.5841e-06
-1.6527e-07
2.56937e-06
-4.21126e-07
2.5676e-06
-1.80164e-07
2.54819e-06
-3.69853e-07
2.56114e-06
4.73312e-08
2.54803e-06
-4.09751e-08
2.56004e-06
8.22865e-08
2.55503e-06
1.57431e-07
2.55665e-06
1.20125e-07
2.56181e-06
2.18893e-07
2.55794e-06
2.0627e-07
2.00102e-07
2.56167e-06
2.68799e-06
-8.33991e-07
2.7019e-06
3.0942e-07
2.6948e-06
-1.59026e-08
2.69795e-06
-4.60709e-08
2.69807e-06
2.14241e-07
2.70879e-06
1.71266e-07
2.70973e-06
9.92291e-08
2.71188e-06
-4.55413e-08
2.7076e-06
-1.60992e-07
2.69206e-06
-4.05582e-07
2.69086e-06
-1.78966e-07
2.67073e-06
-3.4972e-07
2.68373e-06
3.4328e-08
2.67087e-06
-2.81162e-08
2.68164e-06
7.15193e-08
2.67825e-06
1.60817e-07
2.67786e-06
1.20515e-07
2.68435e-06
2.12408e-07
2.68089e-06
2.09731e-07
1.96795e-07
2.68419e-06
2.81645e-06
-8.13171e-07
2.83156e-06
2.94307e-07
2.82343e-06
-7.76914e-09
2.82734e-06
-4.99866e-08
2.82704e-06
2.14549e-07
2.83807e-06
1.60232e-07
2.83907e-06
9.82305e-08
2.8408e-06
-4.72781e-08
2.83702e-06
-1.5721e-07
2.82063e-06
-3.89191e-07
2.81996e-06
-1.78298e-07
2.79935e-06
-3.29102e-07
2.8121e-06
2.15709e-08
2.79993e-06
-1.59462e-08
2.80914e-06
6.23108e-08
2.80754e-06
1.62418e-07
2.80546e-06
1.22596e-07
2.81272e-06
2.05152e-07
2.81015e-06
2.12298e-07
1.94217e-07
2.81273e-06
2.95109e-06
-7.91368e-07
2.96744e-06
2.77957e-07
2.95825e-06
1.42046e-09
2.96293e-06
-5.4661e-08
2.96224e-06
2.15233e-07
2.97347e-06
1.49002e-07
2.97466e-06
9.70493e-08
2.97582e-06
-4.84402e-08
2.97264e-06
-1.5403e-07
2.9554e-06
-3.7195e-07
2.95515e-06
-1.78054e-07
2.93435e-06
-3.08302e-07
2.94648e-06
9.4398e-09
2.93538e-06
-4.84404e-09
2.9428e-06
5.48909e-08
2.94293e-06
1.62288e-07
2.93962e-06
1.25905e-07
2.94714e-06
1.97635e-07
2.94579e-06
2.13647e-07
1.92446e-07
2.94756e-06
3.09222e-06
-7.68581e-07
3.10982e-06
2.60359e-07
3.09958e-06
1.1658e-08
3.10497e-06
-6.0053e-08
3.104e-06
2.16208e-07
3.11527e-06
1.37726e-07
3.11679e-06
9.55308e-08
3.11722e-06
-4.8865e-08
3.11473e-06
-1.51539e-07
3.09669e-06
-3.53918e-07
3.09668e-06
-1.78042e-07
3.07607e-06
-2.87686e-07
3.08716e-06
-1.65767e-09
3.07741e-06
4.90807e-09
3.08295e-06
4.93481e-08
3.08458e-06
1.60663e-07
3.08054e-06
1.29944e-07
3.08794e-06
1.90231e-07
3.08795e-06
2.13636e-07
1.91383e-07
3.08902e-06
3.24014e-06
-7.44816e-07
3.25898e-06
2.41522e-07
3.24773e-06
2.29089e-08
3.25377e-06
-6.60923e-08
3.25262e-06
2.1736e-07
3.26375e-06
1.26596e-07
3.26579e-06
9.34894e-08
3.26532e-06
-4.83949e-08
3.26357e-06
-1.49788e-07
3.24488e-06
-3.35227e-07
3.24483e-06
-1.77993e-07
3.2248e-06
-2.67658e-07
3.23448e-06
-1.13378e-08
3.22623e-06
1.31593e-08
3.22995e-06
4.56221e-08
3.23275e-06
1.57868e-07
3.22842e-06
1.34276e-07
3.23548e-06
1.83172e-07
3.23686e-06
2.12247e-07
1.90822e-07
3.23743e-06
3.3952e-06
-7.20083e-07
3.41525e-06
2.21473e-07
3.40305e-06
3.51107e-08
3.40963e-06
-7.26757e-08
3.40845e-06
2.18537e-07
3.4192e-06
1.15846e-07
3.42198e-06
9.07067e-08
3.42048e-06
-4.6886e-08
3.41945e-06
-1.48767e-07
3.40032e-06
-3.16094e-07
3.39989e-06
-1.77561e-07
3.38086e-06
-2.48628e-07
3.38881e-06
-1.92907e-08
3.38206e-06
1.99102e-08
3.38416e-06
4.35269e-08
3.38781e-06
1.54216e-07
3.38351e-06
1.38573e-07
3.39009e-06
1.766e-07
3.39281e-06
2.09521e-07
1.90528e-07
3.39311e-06
3.55773e-06
-6.94407e-07
3.57895e-06
2.00259e-07
3.56589e-06
4.81681e-08
3.57288e-06
-7.96629e-08
3.57186e-06
2.19553e-07
3.58195e-06
1.05762e-07
3.58572e-06
8.69358e-08
3.58306e-06
-4.42245e-08
3.58267e-06
-1.48381e-07
3.5634e-06
-2.96828e-07
3.56223e-06
-1.76384e-07
3.54451e-06
-2.3091e-07
3.5506e-06
-2.53867e-08
3.54517e-06
2.53499e-08
3.54593e-06
4.27666e-08
3.55017e-06
1.4997e-07
3.54614e-06
1.42602e-07
3.55211e-06
1.70635e-07
3.55613e-06
2.055e-07
1.90268e-07
3.55639e-06
3.72812e-06
-6.6782e-07
3.75043e-06
1.77946e-07
3.73665e-06
6.19493e-08
3.74386e-06
-8.68732e-08
3.74324e-06
2.20177e-07
3.75231e-06
9.66832e-08
3.75734e-06
8.19145e-08
3.75346e-06
-4.03478e-08
3.75352e-06
-1.4844e-07
3.73451e-06
-2.77817e-07
3.73222e-06
-1.74091e-07
3.71599e-06
-2.14687e-07
3.7203e-06
-2.96913e-08
3.71584e-06
2.98063e-08
3.71562e-06
4.29862e-08
3.72024e-06
1.45346e-07
3.71665e-06
1.46198e-07
3.72192e-06
1.65364e-07
3.72715e-06
2.00272e-07
1.89799e-07
3.72762e-06
3.90674e-06
-6.40369e-07
3.93005e-06
1.54628e-07
3.91572e-06
7.62799e-08
3.92293e-06
-9.40825e-08
3.92296e-06
2.20151e-07
3.93068e-06
8.89648e-08
3.93717e-06
7.54217e-08
3.93211e-06
-3.52921e-08
3.93233e-06
-1.48658e-07
3.914e-06
-2.59488e-07
3.91028e-06
-1.70372e-07
3.89556e-06
-1.99968e-07
3.89832e-06
-3.2446e-08
3.89447e-06
3.36574e-08
3.89356e-06
4.38904e-08
3.89843e-06
1.40482e-07
3.89543e-06
1.49191e-07
3.89991e-06
1.60889e-07
3.9062e-06
1.93978e-07
1.8884e-07
3.90716e-06
4.094e-06
-6.12114e-07
4.1182e-06
1.30427e-07
4.10354e-06
9.09396e-08
4.11048e-06
-1.01023e-07
4.11144e-06
2.19193e-07
4.11746e-06
8.29367e-08
4.12555e-06
6.73371e-08
4.11948e-06
-2.92223e-08
4.11948e-06
-1.48663e-07
4.10224e-06
-2.42247e-07
4.0969e-06
-1.65033e-07
4.08352e-06
-1.86581e-07
4.08507e-06
-3.39969e-08
4.08149e-06
3.72351e-08
4.08007e-06
4.53116e-08
4.08515e-06
1.35404e-07
4.0829e-06
1.51441e-07
4.08651e-06
1.57275e-07
4.09364e-06
1.86853e-07
1.87093e-07
4.09538e-06
4.29032e-06
-5.83134e-07
4.31525e-06
1.05496e-07
4.30054e-06
1.05655e-07
4.30689e-06
-1.07378e-07
4.30907e-06
2.17017e-07
4.31314e-06
7.88682e-08
4.32279e-06
5.76797e-08
4.31602e-06
-2.24456e-08
4.31538e-06
-1.48028e-07
4.29957e-06
-2.26436e-07
4.29257e-06
-1.58036e-07
4.28021e-06
-1.74216e-07
4.28092e-06
-3.47069e-08
4.2774e-06
4.0755e-08
4.27552e-06
4.71901e-08
4.28082e-06
1.30103e-07
4.27944e-06
1.52825e-07
4.28222e-06
1.54492e-07
4.28981e-06
1.79269e-07
1.84261e-07
4.29264e-06
4.49616e-06
-5.53522e-07
4.52164e-06
8.00221e-08
4.50719e-06
1.20101e-07
4.5126e-06
-1.12792e-07
4.51627e-06
2.13349e-07
4.51822e-06
7.69235e-08
4.52925e-06
4.66434e-08
4.5222e-06
-1.53917e-08
4.52048e-06
-1.46306e-07
4.50631e-06
-2.12273e-07
4.4978e-06
-1.49524e-07
4.48608e-06
-1.62493e-07
4.48624e-06
-3.48668e-08
4.48273e-06
4.42643e-08
4.48038e-06
4.9538e-08
4.48586e-06
1.24623e-07
4.48548e-06
1.53208e-07
4.48754e-06
1.52429e-07
4.49514e-06
1.71664e-07
1.80147e-07
4.49926e-06
4.71199e-06
-5.23394e-07
4.73778e-06
5.42276e-08
4.72398e-06
1.33906e-07
4.72806e-06
-1.16878e-07
4.73346e-06
2.07956e-07
4.73327e-06
7.71133e-08
4.74529e-06
3.46226e-08
4.73847e-06
-8.57962e-09
4.73528e-06
-1.43108e-07
4.72279e-06
-1.9979e-07
4.71309e-06
-1.39814e-07
4.70157e-06
-1.50979e-07
4.70143e-06
-3.47284e-08
4.69804e-06
4.76523e-08
4.69514e-06
5.24477e-08
4.7007e-06
1.19053e-07
4.70143e-06
1.52482e-07
4.70297e-06
1.50893e-07
4.71017e-06
1.64464e-07
1.74737e-07
4.71558e-06
4.93829e-06
-4.92882e-07
4.96414e-06
2.83738e-08
4.95139e-06
1.46652e-07
4.95376e-06
-1.19244e-07
4.96104e-06
2.00672e-07
4.95885e-06
7.93021e-08
4.97132e-06
2.21567e-08
4.9653e-06
-2.5616e-09
4.96032e-06
-1.38124e-07
4.94941e-06
-1.88883e-07
4.93891e-06
-1.29313e-07
4.92719e-06
-1.39257e-07
4.92691e-06
-3.44529e-08
4.92384e-06
5.07251e-08
4.92034e-06
5.5946e-08
4.92583e-06
1.13567e-07
4.92772e-06
1.50589e-07
4.929e-06
1.4961e-07
4.93547e-06
1.57999e-07
1.68254e-07
4.94195e-06
5.17557e-06
-4.6214e-07
5.20119e-06
2.75819e-09
5.18994e-06
1.57902e-07
5.19023e-06
-1.19534e-07
5.19945e-06
1.91453e-07
5.19556e-06
8.31876e-08
5.20783e-06
9.89004e-09
5.20312e-06
2.14878e-09
5.19619e-06
-1.31191e-07
5.18661e-06
-1.79307e-07
5.17574e-06
-1.18444e-07
5.16351e-06
-1.27027e-07
5.1631e-06
-3.40376e-08
5.16057e-06
5.32526e-08
5.15658e-06
5.99303e-08
5.16176e-06
1.08396e-07
5.16479e-06
1.47553e-07
5.16612e-06
1.48286e-07
5.17171e-06
1.52405e-07
1.61149e-07
5.17881e-06
5.42439e-06
-4.3134e-07
5.44943e-06
-2.22812e-08
5.44012e-06
1.67214e-07
5.43805e-06
-1.1747e-07
5.44911e-06
1.80393e-07
5.44395e-06
8.83493e-08
5.45535e-06
-1.50738e-09
5.45236e-06
5.13494e-09
5.4435e-06
-1.22332e-07
5.43487e-06
-1.7067e-07
5.42415e-06
-1.07726e-07
5.41113e-06
-1.14005e-07
5.41045e-06
-3.33586e-08
5.40872e-06
5.49829e-08
5.40444e-06
6.42122e-08
5.40906e-06
1.03771e-07
5.41311e-06
1.43507e-07
5.41476e-06
1.46633e-07
5.41953e-06
1.47632e-07
1.53966e-07
5.42672e-06
5.68529e-06
-4.00671e-07
5.70938e-06
-4.63681e-08
5.70241e-06
1.74177e-07
5.69785e-06
-1.12904e-07
5.71051e-06
1.67728e-07
5.70457e-06
9.42904e-08
5.71448e-06
-1.1419e-08
5.71346e-06
6.15581e-09
5.70291e-06
-1.11783e-07
5.69467e-06
-1.62426e-07
5.68457e-06
-9.7625e-08
5.6708e-06
-1.00242e-07
5.66952e-06
-3.20756e-08
5.66879e-06
5.57171e-08
5.66443e-06
6.85635e-08
5.66835e-06
9.98523e-08
5.67322e-06
1.3864e-07
5.67538e-06
1.44475e-07
5.67957e-06
1.43443e-07
1.47187e-07
5.68635e-06
5.95886e-06
-3.70339e-07
5.98158e-06
-6.90901e-08
5.97731e-06
1.7845e-07
5.97026e-06
-1.05849e-07
5.98416e-06
1.53824e-07
5.97798e-06
1.00469e-07
5.98589e-06
-1.93276e-08
5.98685e-06
5.19373e-09
5.97505e-06
-9.99835e-08
5.96662e-06
-1.53992e-07
5.95743e-06
-8.84349e-08
5.94325e-06
-8.60637e-08
5.94106e-06
-2.98813e-08
5.94128e-06
5.54951e-08
5.93715e-06
7.26909e-08
5.94025e-06
9.6753e-08
5.94571e-06
1.33178e-07
5.94848e-06
1.41712e-07
5.95234e-06
1.39584e-07
1.41043e-07
5.95848e-06
6.24571e-06
-3.40556e-07
6.26662e-06
-9.00092e-08
6.26527e-06
1.79808e-07
6.25594e-06
-9.65252e-08
6.27065e-06
1.3912e-07
6.26474e-06
1.06371e-07
6.27032e-06
-2.49014e-08
6.27301e-06
2.49769e-09
6.26055e-06
-8.75214e-08
6.25139e-06
-1.44827e-07
6.24322e-06
-8.02703e-08
6.22905e-06
-7.18949e-08
6.2258e-06
-2.66321e-08
6.2268e-06
5.45034e-08
6.22316e-06
7.63302e-08
6.22539e-06
9.45191e-08
6.23123e-06
1.27343e-07
6.23463e-06
1.38309e-07
6.23838e-06
1.35835e-07
1.35514e-07
6.24391e-06
6.54645e-06
-3.1154e-07
6.5651e-06
-1.08658e-07
6.56677e-06
1.78145e-07
6.55558e-06
-8.53392e-08
6.57059e-06
1.24108e-07
6.56544e-06
1.11523e-07
6.56854e-06
-2.80034e-08
6.57247e-06
-1.4293e-09
6.56e-06
-7.50509e-08
6.54971e-06
-1.34538e-07
6.54246e-06
-7.30188e-08
6.52879e-06
-5.82324e-08
6.52447e-06
-2.23118e-08
6.52599e-06
5.29921e-08
6.52307e-06
7.92465e-08
6.52444e-06
9.31446e-08
6.53037e-06
1.21416e-07
6.53449e-06
1.34188e-07
6.53823e-06
1.32097e-07
1.30408e-07
6.54334e-06
6.86176e-06
-2.8351e-07
6.87764e-06
-1.2454e-07
6.88234e-06
1.73451e-07
6.86987e-06
-7.28715e-08
6.88467e-06
1.09309e-07
6.88067e-06
1.1552e-07
6.88133e-06
-2.86651e-08
6.88588e-06
-5.97283e-09
6.87392e-06
-6.30951e-08
6.8625e-06
-1.23122e-07
6.85584e-06
-6.63576e-08
6.84295e-06
-4.53412e-08
6.83777e-06
-1.71255e-08
6.83955e-06
5.12079e-08
6.83752e-06
8.12782e-08
6.83815e-06
9.2516e-08
6.84385e-06
1.1571e-07
6.84865e-06
1.29394e-07
6.85256e-06
1.28181e-07
1.2561e-07
6.85736e-06
7.1923e-06
-2.5667e-07
7.20491e-06
-1.37151e-07
7.21256e-06
1.65803e-07
7.1995e-06
-5.98179e-08
7.2136e-06
9.52075e-08
7.21102e-06
1.18101e-07
7.20946e-06
-2.70987e-08
7.21402e-06
-1.0535e-08
7.20287e-06
-5.19479e-08
7.19065e-06
-1.10897e-07
7.18421e-06
-5.99221e-08
7.17219e-06
-3.33226e-08
7.16628e-06
-1.12135e-08
7.16822e-06
4.9269e-08
7.16714e-06
8.23614e-08
7.16726e-06
9.23868e-08
7.17241e-06
1.1056e-07
7.17774e-06
1.24071e-07
7.18201e-06
1.23912e-07
1.21005e-07
7.18661e-06
7.53876e-06
-2.31204e-07
7.54773e-06
-1.46124e-07
7.55809e-06
1.55449e-07
7.54519e-06
-4.69232e-08
7.55818e-06
8.22246e-08
7.5571e-06
1.19181e-07
7.5537e-06
-2.37035e-08
7.5577e-06
-1.45349e-08
7.54755e-06
-4.18001e-08
7.5348e-06
-9.81474e-08
7.52848e-06
-5.36038e-08
7.51729e-06
-2.21244e-08
7.51068e-06
-4.60546e-09
7.51266e-06
4.72895e-08
7.51265e-06
8.23666e-08
7.51251e-06
9.25313e-08
7.51691e-06
1.06155e-07
7.52249e-06
1.18498e-07
7.52717e-06
1.19225e-07
1.16393e-07
7.53179e-06
7.90188e-06
-2.07269e-07
7.90708e-06
-1.5133e-07
7.91968e-06
1.4285e-07
7.90765e-06
-3.48961e-08
7.91919e-06
7.06882e-08
7.91948e-06
1.18887e-07
7.91483e-06
-1.90534e-08
7.91787e-06
-1.75699e-08
7.90852e-06
-3.24549e-08
7.89561e-06
-8.52358e-08
7.88948e-06
-4.74663e-08
7.87913e-06
-1.17789e-08
7.87178e-06
2.74831e-09
7.87356e-06
4.55041e-08
7.87472e-06
8.12126e-08
7.87461e-06
9.26406e-08
7.87824e-06
1.02523e-07
7.88375e-06
1.12992e-07
7.88875e-06
1.14217e-07
1.11553e-07
7.89359e-06
8.28239e-06
-1.84973e-07
8.28396e-06
-1.52908e-07
8.29812e-06
1.28691e-07
8.28759e-06
-2.43615e-08
8.29752e-06
6.0756e-08
8.29889e-06
1.17519e-07
8.29351e-06
-1.36787e-08
8.29553e-06
-1.95848e-08
8.28659e-06
-2.35171e-08
8.27366e-06
-7.23054e-08
8.26788e-06
-4.16853e-08
8.25862e-06
-2.51962e-09
8.25056e-06
1.08088e-08
8.25171e-06
4.43498e-08
8.254e-06
7.89219e-08
8.25432e-06
9.23186e-08
8.25722e-06
9.96286e-08
8.26242e-06
1.07786e-07
8.26752e-06
1.09125e-07
1.0638e-07
8.27269e-06
8.68107e-06
-1.64379e-07
8.67939e-06
-1.51228e-07
8.69426e-06
1.13816e-07
8.68568e-06
-1.57803e-08
8.69408e-06
5.23604e-08
8.69612e-06
1.1548e-07
8.69037e-06
-7.92979e-09
8.69163e-06
-2.08497e-08
8.6828e-06
-1.46838e-08
8.66963e-06
-5.9135e-08
8.66437e-06
-3.64304e-08
8.65657e-06
5.28947e-09
8.64803e-06
1.93405e-08
8.64803e-06
4.43554e-08
8.6512e-06
7.57517e-08
8.65241e-06
9.11105e-08
8.6547e-06
9.73356e-08
8.65947e-06
1.03014e-07
8.66446e-06
1.04139e-07
1.01084e-07
8.66975e-06
9.09873e-06
-1.45493e-07
9.09434e-06
-1.46837e-07
9.10906e-06
9.91005e-08
9.10267e-06
-9.38964e-09
9.10983e-06
4.51969e-08
9.11207e-06
1.13237e-07
9.10613e-06
-1.98281e-09
9.10702e-06
-2.17402e-08
9.09828e-06
-5.9499e-09
9.08446e-06
-4.53151e-08
9.07964e-06
-3.16042e-08
9.07363e-06
1.12919e-08
9.06511e-06
2.78606e-08
9.06366e-06
4.58073e-08
9.06718e-06
7.22307e-08
9.06945e-06
8.88392e-08
9.07158e-06
9.52091e-08
9.07579e-06
9.88025e-08
9.08055e-06
9.9378e-08
9.59414e-08
9.0857e-06
9.53623e-06
-1.28265e-07
9.52979e-06
-1.40398e-07
9.54353e-06
8.53671e-08
9.53934e-06
-5.1985e-09
9.5457e-06
3.88306e-08
9.54781e-06
1.11125e-07
9.5415e-06
4.33547e-09
9.54245e-06
-2.26912e-08
9.53425e-06
2.24903e-09
9.51935e-06
-3.04213e-08
9.51433e-06
-2.65842e-08
9.51048e-06
1.51431e-08
9.50268e-06
3.56668e-08
9.49981e-06
4.86776e-08
9.50293e-06
6.91072e-08
9.5062e-06
8.55708e-08
9.5087e-06
9.271e-08
9.51229e-06
9.52079e-08
9.51679e-06
9.48754e-08
9.11462e-08
9.52159e-06
9.99446e-06
-1.12593e-07
9.98666e-06
-1.32591e-07
9.99879e-06
7.3233e-08
9.99653e-06
-2.94154e-09
1.00026e-05
3.27723e-08
1.00045e-05
1.09184e-07
9.99739e-06
1.14833e-08
9.99857e-06
-2.38789e-08
9.99172e-06
9.0984e-09
9.97571e-06
-1.44094e-08
9.96956e-06
-2.0435e-08
9.96778e-06
1.6924e-08
9.9615e-06
4.19535e-08
9.95753e-06
5.26421e-08
9.95961e-06
6.70259e-08
9.96356e-06
8.16204e-08
9.96673e-06
8.95466e-08
9.97e-06
9.19335e-08
9.97419e-06
9.06865e-08
8.67401e-08
9.9786e-06
1.04744e-05
-9.83293e-08
1.04658e-05
-1.24064e-07
1.0476e-05
6.30646e-08
1.04752e-05
-2.08976e-09
1.04814e-05
2.65354e-08
1.04833e-05
1.07288e-07
1.0475e-05
1.98016e-08
1.04761e-05
-2.50095e-08
1.04716e-05
1.36155e-08
1.0455e-05
2.23437e-09
1.04467e-05
-1.22067e-08
1.04463e-05
1.73156e-08
1.04422e-05
4.60446e-08
1.04378e-05
5.70752e-08
1.04386e-05
6.62593e-08
1.04426e-05
7.75806e-08
1.04465e-05
8.56667e-08
1.04499e-05
8.85111e-08
1.04537e-05
8.68545e-08
8.26212e-08
1.04579e-05
1.0977e-05
-8.5295e-08
1.09683e-05
-1.15394e-07
1.09764e-05
5.49822e-08
1.09763e-05
-1.97238e-09
1.0983e-05
1.9794e-08
1.09852e-05
1.05084e-07
1.09756e-05
2.94583e-08
1.0976e-05
-2.54218e-08
1.09744e-05
1.51876e-08
1.09584e-05
1.82666e-08
1.09474e-05
-1.28139e-09
1.09473e-05
1.74825e-08
1.09456e-05
4.77543e-08
1.09416e-05
6.10931e-08
1.09411e-05
6.67238e-08
1.09445e-05
7.41416e-08
1.0949e-05
8.12113e-08
1.09529e-05
8.46104e-08
1.09565e-05
8.3212e-08
7.86623e-08
1.09605e-05
1.15034e-05
-7.3314e-08
1.1495e-05
-1.07056e-07
1.15011e-05
4.89053e-08
1.1501e-05
-1.88796e-09
1.15084e-05
1.24334e-08
1.15114e-05
1.0209e-07
1.15005e-05
4.03016e-08
1.14993e-05
-2.41538e-08
1.15008e-05
1.36262e-08
1.14867e-05
3.23673e-08
1.14734e-05
1.20503e-08
1.1472e-05
1.88818e-08
1.14724e-05
4.73272e-08
1.14697e-05
6.38673e-08
1.14683e-05
6.81201e-08
1.14707e-05
7.17054e-08
1.14753e-05
7.6605e-08
1.14798e-05
8.01598e-08
1.14835e-05
7.94811e-08
7.48515e-08
1.14873e-05
1.20547e-05
-6.22342e-08
1.2047e-05
-9.93504e-08
1.20514e-05
4.4524e-08
1.20507e-05
-1.16009e-09
1.20585e-05
4.61263e-09
1.20628e-05
9.77715e-08
1.20512e-05
5.1899e-08
1.20475e-05
-2.03813e-08
1.20515e-05
9.54067e-09
1.20408e-05
4.31227e-08
1.20259e-05
2.69289e-08
1.20222e-05
2.25863e-08
1.2024e-05
4.55699e-08
1.2023e-05
6.48375e-08
1.20212e-05
6.98992e-08
1.20226e-05
7.03314e-08
1.20267e-05
7.24653e-08
1.20316e-05
7.5256e-08
1.20357e-05
7.54476e-08
7.11209e-08
1.20394e-05
1.26323e-05
-5.19452e-08
1.26254e-05
-9.24069e-08
1.26285e-05
4.13844e-08
1.26266e-05
7.56693e-10
1.26345e-05
-3.30543e-09
1.26405e-05
9.17639e-08
1.26289e-05
6.35081e-08
1.26221e-05
-1.36122e-08
1.26274e-05
4.24012e-09
1.26212e-05
4.93798e-08
1.26061e-05
4.20299e-08
1.25997e-05
2.89518e-08
1.26015e-05
4.37336e-08
1.26024e-05
6.39407e-08
1.26011e-05
7.1198e-08
1.26016e-05
6.99108e-08
1.26048e-05
6.92542e-08
1.26098e-05
7.02291e-08
1.26143e-05
7.0952e-08
6.73795e-08
1.2618e-05
1.32374e-05
-4.238e-08
1.32312e-05
-8.62017e-08
1.32336e-05
3.89512e-08
1.32302e-05
4.17864e-09
1.32376e-05
-1.07228e-08
1.32455e-05
8.38481e-08
1.32348e-05
7.4239e-08
1.3225e-05
-3.83921e-09
1.32299e-05
-6.58039e-10
1.32285e-05
5.0755e-08
1.32149e-05
5.57e-08
1.32061e-05
3.77296e-08
1.32068e-05
4.30235e-08
1.32092e-05
6.15268e-08
1.32091e-05
7.12826e-08
1.3209e-05
7.0048e-08
1.32112e-05
6.70408e-08
1.32158e-05
6.56013e-08
1.32208e-05
6.60147e-08
6.34605e-08
1.32247e-05
1.38713e-05
-3.35329e-08
1.38657e-05
-8.05381e-08
1.38679e-05
3.67047e-08
1.3863e-05
9.06425e-09
1.38691e-05
-1.68332e-08
1.38789e-05
7.40542e-08
1.387e-05
8.31585e-08
1.38577e-05
8.41647e-09
1.38605e-05
-3.45801e-09
1.38636e-05
4.76831e-08
1.38531e-05
6.62519e-08
1.38426e-05
4.8177e-08
1.38415e-05
4.41391e-08
1.38447e-05
5.83253e-08
1.38461e-05
6.98543e-08
1.38461e-05
7.00644e-08
1.38476e-05
6.55386e-08
1.38515e-05
6.17463e-08
1.38567e-05
6.08312e-08
5.92914e-08
1.38608e-05
1.45356e-05
-2.54471e-08
1.45301e-05
-7.50878e-08
1.45327e-05
3.41323e-08
1.45265e-05
1.52232e-08
1.45306e-05
-2.0897e-08
1.4542e-05
6.26378e-08
1.45358e-05
8.94293e-08
1.45218e-05
2.23318e-08
1.45215e-05
-3.08599e-09
1.45276e-05
4.15145e-08
1.45214e-05
7.24369e-08
1.45106e-05
5.9061e-08
1.45074e-05
4.72985e-08
1.45106e-05
5.51534e-08
1.45134e-05
6.70726e-08
1.45141e-05
6.93514e-08
1.45152e-05
6.44269e-08
1.45181e-05
5.88599e-08
1.45231e-05
5.57566e-08
5.47638e-08
1.45277e-05
1.52316e-05
-1.82149e-08
1.5226e-05
-6.94624e-08
1.52293e-05
3.08769e-08
1.52223e-05
2.22022e-08
1.52237e-05
-2.23211e-08
1.52361e-05
5.0216e-08
1.52332e-05
9.24112e-08
1.52187e-05
3.67863e-08
1.52147e-05
8.76163e-10
1.52221e-05
3.41255e-08
1.52208e-05
7.38066e-08
1.5211e-05
6.88587e-08
1.52061e-05
5.22102e-08
1.52084e-05
5.28536e-08
1.52123e-05
6.3165e-08
1.52141e-05
6.75338e-08
1.52151e-05
6.33734e-08
1.52173e-05
5.66669e-08
1.52215e-05
5.15375e-08
4.98701e-08
1.52264e-05
1.59611e-05
-1.19361e-08
1.59549e-05
-6.3326e-08
1.5959e-05
2.68196e-08
1.59518e-05
2.93585e-08
1.59503e-05
-2.0785e-08
1.59629e-05
3.76216e-08
1.59634e-05
9.18746e-08
1.59496e-05
5.05562e-08
1.59424e-05
8.12178e-09
1.59489e-05
2.75873e-08
1.59521e-05
7.06393e-08
1.59449e-05
7.60845e-08
1.59388e-05
5.82469e-08
1.59397e-05
5.19983e-08
1.59443e-05
5.85942e-08
1.59474e-05
6.44051e-08
1.59488e-05
6.19899e-08
1.59505e-05
5.49093e-08
1.59537e-05
4.842e-08
4.51094e-08
1.59584e-05
1.67254e-05
-6.69894e-09
1.67185e-05
-5.64329e-08
1.67232e-05
2.20885e-08
1.67166e-05
3.59297e-08
1.67121e-05
-1.62952e-08
1.67239e-05
2.58769e-08
1.67278e-05
8.79305e-08
1.67159e-05
6.25212e-08
1.67063e-05
1.76919e-08
1.67103e-05
2.35849e-08
1.67169e-05
6.40678e-08
1.67133e-05
7.96074e-08
1.67071e-05
6.4519e-08
1.67064e-05
5.2633e-08
1.67108e-05
5.42623e-08
1.67151e-05
6.00959e-08
1.67173e-05
5.98171e-08
1.67187e-05
5.34697e-08
1.6721e-05
4.61031e-08
4.12962e-08
1.67248e-05
1.75262e-05
-2.54434e-09
1.75185e-05
-4.87345e-08
1.75235e-05
1.70577e-08
1.75183e-05
4.12098e-08
1.75112e-05
-9.27084e-09
1.7521e-05
1.60908e-08
1.7528e-05
8.09791e-08
1.75187e-05
7.18146e-08
1.75079e-05
2.8444e-08
1.75088e-05
2.26961e-08
1.75169e-05
5.6019e-08
1.75174e-05
7.90552e-08
1.75121e-05
6.98419e-08
1.75102e-05
5.45124e-08
1.75135e-05
5.09915e-08
1.75185e-05
5.50995e-08
1.75217e-05
5.6643e-08
1.75231e-05
5.20495e-08
1.75246e-05
4.45332e-08
3.86914e-08
1.75272e-05
1.83653e-05
5.36408e-10
1.83569e-05
-4.0331e-08
1.83617e-05
1.22231e-08
1.83582e-05
4.46896e-08
1.83494e-05
-4.92785e-10
1.83563e-05
9.20119e-09
1.83655e-05
7.18446e-08
1.83595e-05
7.77478e-08
1.83487e-05
3.92811e-08
1.83468e-05
2.46326e-08
1.83544e-05
4.8357e-08
1.83584e-05
7.50286e-08
1.83553e-05
7.30032e-08
1.83525e-05
5.72676e-08
1.83544e-05
4.90997e-08
1.83593e-05
5.02376e-08
1.83632e-05
5.27002e-08
1.83651e-05
5.02046e-08
1.8366e-05
4.36187e-08
3.69292e-08
1.83677e-05
1.92443e-05
2.61944e-09
1.92355e-05
-3.14758e-08
1.92396e-05
8.08379e-09
1.92381e-05
4.61593e-08