/*--------------------------------*- C++ -*----------------------------------*\
| =========                 |                                                 |
| \\      /  F ield         | OpenFOAM: The Open Source CFD Toolbox           |
|  \\    /   O peration     | Version:  2106                                  |
|   \\  /    A nd           | Website:  www.openfoam.com                      |
|    \\/     M anipulation  |                                                 |
\*---------------------------------------------------------------------------*/
FoamFile
{
    version     2.0;
    format      ascii;
    arch        "LSB;label=32;scalar=64";
    class       volScalarField;
    location    "0.015";
    object      p;
}
// * * * * * * * * * * * * * * * * * * * * * * * * * * * * * * * * * * * * * //

dimensions      [0 2 -2 0 0 0 0];

internalField   nonuniform List<scalar> 
9600
(
-5.07116e-11
2.40988e-05
6.79434e-05
0.000130081
0.000210349
0.000309816
0.000426799
0.000571914
0.000710815
0.000959556
0.000970128
0.00165189
0.000798917
0.00283879
0.000424311
0.00444223
0.00521557
0.00584074
0.0109179
0.0137899
-7.9761e-09
2.40849e-05
6.79249e-05
0.000130058
0.00021032
0.00030978
0.000426755
0.000571843
0.000710821
0.000959203
0.000971151
0.00164813
0.000809409
0.00281904
0.000463592
0.004417
0.00523275
0.00583223
0.0109305
0.0132676
-2.0442e-08
2.40657e-05
6.79e-05
0.000130027
0.000210281
0.000309729
0.000426695
0.000571747
0.000710804
0.000958797
0.000972167
0.00164448
0.000821205
0.00280507
0.000521768
0.00440095
0.00525354
0.00578909
0.0109197
0.0126724
-3.76175e-08
2.40412e-05
6.78688e-05
0.000129989
0.000210232
0.000309666
0.000426618
0.000571627
0.000710775
0.00095831
0.000973314
0.00164067
0.000835073
0.00279689
0.000596635
0.00439728
0.00526487
0.00574337
0.0108836
0.0121801
-6.02635e-08
2.40106e-05
6.78302e-05
0.00012994
0.000210172
0.000309587
0.000426523
0.000571477
0.00071073
0.000957729
0.00097462
0.00163649
0.00085109
0.00278965
0.000682457
0.00438955
0.00527284
0.00569584
0.0108309
0.0117401
-8.91483e-08
2.39729e-05
6.77831e-05
0.000129882
0.000210097
0.00030949
0.000426406
0.000571294
0.000710666
0.000957047
0.000976076
0.00163192
0.000868708
0.00278174
0.000772906
0.00437421
0.00528175
0.00564405
0.0107561
0.0113303
-1.25045e-07
2.39272e-05
6.77264e-05
0.000129811
0.000210008
0.000309373
0.000426265
0.000571073
0.000710581
0.000956251
0.000977696
0.0016269
0.000887849
0.00277223
0.000865919
0.00435221
0.00529213
0.00558782
0.0106544
0.0109649
-1.68822e-07
2.38726e-05
6.76589e-05
0.000129726
0.000209901
0.000309234
0.000426096
0.00057081
0.00071047
0.000955333
0.000979482
0.00162139
0.0009085
0.00276071
0.000961154
0.00432354
0.00530355
0.0055282
0.0105228
0.0106077
-2.21443e-07
2.3808e-05
6.75795e-05
0.000129627
0.000209775
0.000309069
0.000425897
0.000570501
0.000710331
0.000954282
0.000981442
0.00161536
0.000930658
0.00274706
0.00105827
0.0042882
0.00531527
0.00546577
0.0103594
0.0102769
-2.83974e-07
2.37323e-05
6.74866e-05
0.000129511
0.000209628
0.000308877
0.000425664
0.00057014
0.000710157
0.000953087
0.000983578
0.0016088
0.000954328
0.00273116
0.00115691
0.00424642
0.00532595
0.00540117
0.010165
0.00997221
-3.57592e-07
2.3644e-05
6.73787e-05
0.000129376
0.000209457
0.000308653
0.000425392
0.000569721
0.000709944
0.000951736
0.000985893
0.00160166
0.000979492
0.00271291
0.00125668
0.0041985
0.00533397
0.0053355
0.00994058
0.00969032
-4.43598e-07
2.35417e-05
6.7254e-05
0.00012922
0.000209259
0.000308394
0.000425077
0.000569239
0.000709686
0.000950217
0.000988386
0.00159394
0.00100611
0.00269227
0.00135709
0.00414487
0.00533767
0.00526999
0.00968773
0.00942668
-5.43429e-07
2.34239e-05
6.71106e-05
0.00012904
0.000209031
0.000308097
0.000424715
0.000568685
0.000709375
0.000948518
0.000991051
0.00158562
0.0010341
0.00266922
0.00145753
0.00408606
0.00533543
0.00520557
0.00940862
0.00917656
-6.58669e-07
2.32888e-05
6.69464e-05
0.000128835
0.00020877
0.000307756
0.000424299
0.000568053
0.000709003
0.000946625
0.000993881
0.00157669
0.00106336
0.00264379
0.00155735
0.00402276
0.00532564
0.00514295
0.00910604
0.00893516
-7.91068e-07
2.31344e-05
6.6759e-05
0.0001286
0.000208472
0.000307366
0.000423823
0.000567334
0.000708562
0.000944526
0.000996861
0.00156715
0.00109376
0.00261605
0.00165577
0.00395577
0.00530669
0.00508259
0.00878335
0.00869737
-9.42554e-07
2.29585e-05
6.65459e-05
0.000128333
0.000208133
0.000306924
0.000423281
0.00056652
0.000708041
0.000942206
0.000999972
0.00155699
0.00112511
0.00258613
0.00175195
0.00388593
0.00527711
0.00502469
0.00844432
0.0084582
-1.11525e-06
2.27589e-05
6.63042e-05
0.000128031
0.000207748
0.000306422
0.000422665
0.0005656
0.000707427
0.000939653
0.00100319
0.00154623
0.00115721
0.0025542
0.00184499
0.00381407
0.00523577
0.00496889
0.00809313
0.00821355
-1.31151e-06
2.25328e-05
6.60308e-05
0.000127689
0.000207313
0.000305854
0.000421967
0.000564564
0.000706709
0.000936852
0.00100648
0.00153488
0.00118981
0.00252046
0.00193395
0.00374112
0.00518183
0.00491425
0.00773453
0.00796024
-1.53389e-06
2.22775e-05
6.57223e-05
0.000127302
0.000206822
0.000305213
0.000421179
0.0005634
0.00070587
0.000933789
0.0010098
0.00152295
0.00122262
0.00248516
0.00201786
0.00366787
0.00511473
0.00485966
0.0073734
0.00769578
-1.78525e-06
2.19897e-05
6.53747e-05
0.000126867
0.000206268
0.000304491
0.000420289
0.000562095
0.000704893
0.000930448
0.00101311
0.00151049
0.00125531
0.00244857
0.00209576
0.00359496
0.00503429
0.00480377
0.00701432
0.00741866
-2.06871e-06
2.16659e-05
6.4984e-05
0.000126378
0.000205646
0.000303681
0.000419286
0.000560635
0.00070376
0.000926813
0.00101634
0.0014975
0.00128752
0.00241096
0.00216675
0.00352292
0.00494072
0.00474505
0.00666142
0.00712859
-2.3877e-06
2.13024e-05
6.45456e-05
0.00012583
0.000204948
0.000302771
0.00041816
0.000559005
0.000702447
0.00092287
0.00101943
0.00148404
0.00131888
0.00237259
0.00222996
0.0034521
0.00483465
0.0046818
0.00631818
0.0068264
-2.746e-06
2.0895e-05
6.40544e-05
0.000125215
0.000204166
0.000301753
0.000416896
0.000557188
0.000700933
0.000918598
0.0010223
0.00147011
0.00134897
0.00233374
0.00228459
0.00338271
0.00471711
0.00461226
0.00598737
0.00651392
-3.14776e-06
2.04389e-05
6.35048e-05
0.000124528
0.000203291
0.000300614
0.00041548
0.000555167
0.000699188
0.000913981
0.00102486
0.00145577
0.00137739
0.00229461
0.00232997
0.00331478
0.0045892
0.0045358
0.00567112
0.00619387
-3.59754e-06
1.99291e-05
6.28908e-05
0.000123759
0.000202313
0.000299342
0.000413895
0.000552922
0.000697184
0.000908995
0.00102702
0.00144101
0.00140371
0.00225536
0.00236563
0.00324799
0.00445221
0.00444923
0.0053707
0.0058695
-4.10035e-06
1.93601e-05
6.22057e-05
0.000122903
0.000201222
0.000297924
0.000412124
0.00055043
0.000694886
0.000903618
0.00102867
0.00142587
0.00142751
0.00221611
0.00239122
0.00318187
0.00430781
0.00435262
0.00508644
0.00554432
-4.66169e-06
1.87257e-05
6.14421e-05
0.000121948
0.000200007
0.000296345
0.000410147
0.000547669
0.000692259
0.000897821
0.00102969
0.00141032
0.0014484
0.00217685
0.00240654
0.00311591
0.0041577
0.00424544
0.00481796
0.00522192
-5.28758e-06
1.80191e-05
6.0592e-05
0.000120885
0.000198653
0.000294589
0.000407944
0.000544612
0.000689263
0.000891573
0.00102997
0.00139436
0.00146597
0.00213756
0.00241017
0.00304942
0.00400347
0.0041276
0.00456434
0.00490562
-5.98463e-06
1.72331e-05
5.96465e-05
0.000119703
0.000197149
0.000292637
0.000405491
0.000541232
0.000685853
0.000884839
0.00102938
0.00137794
0.00147984
0.00209828
0.002405
0.00298157
0.00384661
0.00399942
0.00432424
0.00459833
-6.76008e-06
1.63595e-05
5.85962e-05
0.00011839
0.000195477
0.000290471
0.000402762
0.000537497
0.000681981
0.000877574
0.00102778
0.001361
0.00148978
0.00205882
0.00238997
0.00291165
0.00368844
0.00386161
0.00409607
0.00430233
-7.62185e-06
1.53895e-05
5.74303e-05
0.000116933
0.000193623
0.00028807
0.00039973
0.000533374
0.000677595
0.000869732
0.00102503
0.00134347
0.00149551
0.00201887
0.00236552
0.00283907
0.00353008
0.00371521
0.00387816
0.00401927
-8.57862e-06
1.43135e-05
5.61373e-05
0.000115318
0.000191567
0.000285409
0.000396365
0.000528825
0.00067264
0.000861255
0.00102099
0.00132521
0.00149679
0.00197813
0.00233217
0.00276326
0.0033724
0.00356153
0.00366886
0.00375005
-9.63988e-06
1.31209e-05
5.47047e-05
0.000113529
0.00018929
0.000282465
0.000392634
0.000523812
0.000667054
0.000852078
0.00101553
0.0013061
0.00149346
0.00193626
0.00229051
0.00268375
0.00321606
0.00340201
0.00346673
0.00349498
-1.0816e-05
1.18002e-05
5.31187e-05
0.000111549
0.00018677
0.00027921
0.000388501
0.000518289
0.000660773
0.00084213
0.00100849
0.00128598
0.0014854
0.00189289
0.00224118
0.00260023
0.0030615
0.00323817
0.00327054
0.0032538
-1.21182e-05
1.03389e-05
5.13643e-05
0.000109359
0.000183984
0.000275614
0.000383929
0.000512209
0.000653727
0.000831327
0.00099974
0.00126467
0.00147254
0.00184766
0.00218486
0.00251252
0.00290895
0.0030715
0.00307937
0.00302582
-1.3559e-05
8.72315e-06
4.94254e-05
0.00010694
0.000180907
0.000271645
0.000378875
0.00050552
0.000645843
0.000819579
0.000989144
0.00124197
0.00145486
0.00180022
0.0021222
0.00242061
0.00275853
0.00290342
0.00289258
0.00281012
-1.51517e-05
6.93816e-06
4.72841e-05
0.00010427
0.000177511
0.000267269
0.000373296
0.000498166
0.000637042
0.000806786
0.000976566
0.00121767
0.00143239
0.00175025
0.00205386
0.0023246
0.00261022
0.00273516
0.00270977
0.00260558
-1.69109e-05
4.96771e-06
4.49212e-05
0.000101325
0.000173767
0.000262449
0.000367142
0.000490087
0.000627243
0.000792841
0.000961881
0.00119156
0.00140518
0.00169748
0.00198044
0.00222475
0.00246397
0.00256779
0.00253078
0.00241108
-1.88524e-05
2.79422e-06
4.23161e-05
9.80789e-05
0.000169643
0.000257143
0.000360362
0.000481217
0.000616359
0.000777629
0.000944968
0.00116343
0.00137333
0.00164169
0.00190251
0.00212139
0.00231967
0.00240219
0.00235559
0.00222556
-2.09936e-05
3.98657e-07
3.9446e-05
9.45051e-05
0.000165104
0.000251309
0.000352902
0.000471486
0.0006043
0.00076103
0.000925713
0.00113309
0.00133696
0.00158273
0.00182058
0.00201493
0.00217723
0.00223902
0.00218429
0.00204806
-2.33531e-05
-2.23961e-06
3.62868e-05
9.05734e-05
0.000160113
0.000244901
0.000344703
0.000460822
0.000590976
0.000742921
0.000904016
0.00110035
0.00129622
0.0015205
0.00173513
0.00190583
0.00203657
0.00207878
0.00201701
0.00187773
-2.59509e-05
-5.14283e-06
3.28123e-05
8.6252e-05
0.000154631
0.000237869
0.000335704
0.000449147
0.00057629
0.000723176
0.000879784
0.00106504
0.00125125
0.001455
0.00164658
0.00179458
0.00189765
0.0019218
0.0018539
0.00171391
-2.88088e-05
-8.335e-06
2.89942e-05
8.15067e-05
0.000148616
0.000230161
0.000325839
0.00043638
0.000560148
0.000701672
0.000852936
0.00102703
0.00120225
0.00138626
0.00155534
0.00168164
0.00176046
0.0017683
0.00169507
0.00155603
-3.19502e-05
-1.18419e-05
2.48025e-05
7.63011e-05
0.000142022
0.000221722
0.000315041
0.000422437
0.000542452
0.000678289
0.000823406
0.000986205
0.00114939
0.00131439
0.00146177
0.00156748
0.00162501
0.00161838
0.00154059
0.00140364
-3.54002e-05
-1.56912e-05
2.02047e-05
7.05962e-05
0.000134803
0.000212493
0.00030324
0.000407232
0.00052311
0.000652912
0.000791142
0.000942504
0.00109289
0.00123955
0.00136621
0.00145253
0.00149138
0.00147209
0.00139047
0.00125637
-3.91856e-05
-1.99123e-05
1.51666e-05
6.4351e-05
0.000126908
0.000202415
0.000290362
0.000390679
0.000502027
0.000625437
0.000756109
0.000895887
0.00103294
0.00116193
0.00126897
0.00133719
0.00135963
0.00132941
0.00124471
0.00111391
-4.33352e-05
-2.45368e-05
9.65171e-06
5.75218e-05
0.000118285
0.000191424
0.000276333
0.000372691
0.000479117
0.000595772
0.00071829
0.000846352
0.000969773
0.00108176
0.00117037
0.00122181
0.00122985
0.00119031
0.0011032
0.000975988
-4.78794e-05
-2.9598e-05
3.62152e-06
5.00632e-05
0.000108879
0.000179456
0.000261078
0.000353184
0.000454298
0.000563841
0.000677686
0.000793934
0.00090361
0.000999302
0.0010707
0.00110672
0.00110213
0.00105471
0.000965857
0.000842362
-5.28505e-05
-3.51312e-05
-2.96438e-06
4.19276e-05
9.86353e-05
0.000166444
0.000244523
0.000332076
0.000427497
0.000529582
0.000634321
0.000738703
0.000834689
0.000914817
0.00097023
0.000992171
0.000976546
0.000922543
0.00083253
0.0007128
-5.82826e-05
-4.11732e-05
-1.01482e-05
3.30656e-05
8.74952e-05
0.000152323
0.000226595
0.00030929
0.000398651
0.000492955
0.000588238
0.00068076
0.000763253
0.000828589
0.000869239
0.000878424
0.000853174
0.000793724
0.000703072
0.000587087
-6.42115e-05
-4.77627e-05
-1.79737e-05
2.34266e-05
7.54009e-05
0.000137027
0.000207224
0.000284758
0.000367711
0.000453941
0.000539504
0.000620235
0.000689552
0.0007409
0.00076798
0.000765681
0.000732074
0.000668165
0.000577322
0.000465015
-7.06743e-05
-5.49398e-05
-2.6486e-05
1.29592e-05
6.22939e-05
0.000120491
0.000186343
0.000258418
0.000334641
0.000412543
0.000488206
0.000557285
0.00061384
0.000652032
0.000666697
0.000654122
0.000613294
0.000545778
0.000455118
0.000346388
-7.77095e-05
-6.27457e-05
-3.57309e-05
1.61159e-06
4.81167e-05
0.000102655
0.000163894
0.000230223
0.000299422
0.000368788
0.000434455
0.000492089
0.000536376
0.000562259
0.000565619
0.000543902
0.000496868
0.000426474
0.000336299
0.000231022
-8.53566e-05
-7.12224e-05
-4.57549e-05
-1.06677e-05
3.28134e-05
8.34602e-05
0.000139823
0.000200134
0.000262054
0.000322727
0.000378384
0.000424844
0.00045742
0.000471849
0.00046496
0.000435154
0.000382817
0.000310166
0.000220714
0.000118746
-9.36554e-05
-8.04123e-05
-5.6604e-05
-2.39286e-05
1.63314e-05
6.28564e-05
0.000114089
0.000168132
0.000222557
0.000274435
0.000320142
0.000355764
0.000377232
0.00038106
0.00036492
0.000327993
0.000271153
0.000196769
0.000108221
9.40549e-06
-0.000102646
-9.03572e-05
-6.83232e-05
-3.82188e-05
-1.37764e-06
4.07994e-05
8.66623e-05
0.000134212
0.000180971
0.00022401
0.000259903
0.000285076
0.000296072
0.000290139
0.000265684
0.000222518
0.000161879
8.62045e-05
-1.30957e-06
-9.71404e-05
-0.000112368
-0.000101098
-8.09554e-05
-5.35826e-05
-2.03559e-05
1.72549e-05
5.75253e-05
9.83888e-05
0.000137359
0.000171575
0.000197853
0.000213015
0.000214197
0.000199319
0.000167424
0.000118817
5.49956e-05
-2.16031e-05
-0.000107993
-0.000201013
-0.000122858
-0.000112674
-9.45406e-05
-7.0059e-05
-4.06377e-05
-7.79995e-06
2.6678e-05
6.06977e-05
9.18082e-05
0.000117274
0.000134198
0.000139825
0.00013186
0.000108824
7.02979e-05
1.69683e-05
-4.94998e-05
-0.00012672
-0.000211934
-0.000302317
-0.000134153
-0.00012512
-0.000109114
-8.76805e-05
-6.22477e-05
-3.43743e-05
-5.86232e-06
2.11953e-05
4.44266e-05
6.12724e-05
6.91544e-05
6.57553e-05
4.93078e-05
1.88665e-05
-2.5546e-05
-8.29565e-05
-0.000151608
-0.000229205
-0.000313217
-0.000401137
-0.000146283
-0.000138468
-0.000124704
-0.000106471
-8.51989e-05
-6.24618e-05
-4.00586e-05
-2.00389e-05
-4.65391e-06
3.7563e-06
2.95378e-06
-8.94343e-06
-3.32164e-05
-7.03509e-05
-0.000119968
-0.00018089
-0.000251327
-0.000329102
-0.000411911
-0.000497538
-0.000159275
-0.000152742
-0.000141333
-0.000126444
-0.000109491
-9.20382e-05
-7.58523e-05
-6.29017e-05
-5.52787e-05
-5.50704e-05
-6.41627e-05
-8.40168e-05
-0.000115475
-0.000158633
-0.000212836
-0.000276767
-0.00034865
-0.000426445
-0.000508068
-0.000591567
-0.000173149
-0.00016796
-0.000159012
-0.000147601
-0.000135106
-0.000123059
-0.000113162
-0.000107266
-0.000107271
-0.000114986
-0.000131944
-0.000159209
-0.000197233
-0.000245792
-0.000304019
-0.00037052
-0.000443562
-0.000521252
-0.00060172
-0.000683251
-0.000187916
-0.000184129
-0.00017774
-0.000169926
-0.000162009
-0.000155459
-0.000151881
-0.000152978
-0.00016043
-0.000175753
-0.000200131
-0.000234262
-0.000278262
-0.000331645
-0.000393392
-0.000462076
-0.000536035
-0.000613527
-0.00069288
-0.000772597
-0.000203576
-0.000201244
-0.000197503
-0.000193389
-0.000190143
-0.000189146
-0.000191878
-0.000199862
-0.000214537
-0.000237119
-0.000268456
-0.000308917
-0.000358332
-0.000416007
-0.000480824
-0.000551356
-0.000626029
-0.000703254
-0.000781542
-0.000859588
-0.000220116
-0.000219286
-0.000218267
-0.000217937
-0.000219429
-0.000224005
-0.000232994
-0.000247714
-0.000269349
-0.000298814
-0.000336645
-0.000382914
-0.000437213
-0.000498696
-0.00056618
-0.00063827
-0.00071349
-0.000790397
-0.000867674
-0.000944187
-0.000237507
-0.000238217
-0.000239981
-0.000243495
-0.000249758
-0.000259891
-0.000275042
-0.000296307
-0.000324603
-0.000360556
-0.000404412
-0.000455985
-0.000514675
-0.000579523
-0.000649319
-0.000722717
-0.000798345
-0.000874902
-0.000951225
-0.00102633
-0.000255698
-0.000257979
-0.000262569
-0.00026996
-0.000280997
-0.000296629
-0.000317806
-0.000345385
-0.000380016
-0.000422048
-0.000471463
-0.000527858
-0.000590479
-0.000658292
-0.000730086
-0.000804577
-0.0008805
-0.000956687
-0.00103212
-0.00110594
-0.000274618
-0.000278489
-0.000285927
-0.000297203
-0.000312979
-0.000334015
-0.000361041
-0.000394668
-0.000435284
-0.000482976
-0.000537495
-0.000598253
-0.000664379
-0.000734796
-0.000808312
-0.000883712
-0.000959839
-0.00103565
-0.00111024
-0.0011829
-0.000294168
-0.000299637
-0.000309924
-0.00032506
-0.000345506
-0.000371808
-0.000404468
-0.000443846
-0.000490077
-0.000543009
-0.000602186
-0.000666874
-0.000736116
-0.000808813
-0.000883808
-0.000959962
-0.00103622
-0.00111165
-0.00118547
-0.00125706
-0.000314221
-0.00032128
-0.000334395
-0.000353335
-0.00037834
-0.000409733
-0.000447776
-0.000492583
-0.000544045
-0.000601796
-0.000665203
-0.000733414
-0.000805413
-0.0008801
-0.000956361
-0.00103314
-0.00110947
-0.00118453
-0.00125763
-0.00132826
-0.000334611
-0.000343242
-0.000359136
-0.00038179
-0.000411209
-0.000447479
-0.000490621
-0.000540509
-0.00059681
-0.000658963
-0.000726189
-0.000797542
-0.000871971
-0.000948388
-0.00102573
-0.00110302
-0.00117938
-0.00125408
-0.00132653
-0.00139629
-0.000355138
-0.000365305
-0.000383903
-0.000410147
-0.000443795
-0.000484692
-0.00053262
-0.000587224
-0.000647965
-0.00071411
-0.000784761
-0.000858902
-0.000935463
-0.00101338
-0.00109164
-0.00116935
-0.0012457
-0.00132007
-0.00139193
-0.0014609
-0.000375556
-0.000387208
-0.000408409
-0.000438084
-0.000475739
-0.000520977
-0.000573351
-0.000632291
-0.000697068
-0.000766806
-0.000840507
-0.000917107
-0.000995529
-0.00107474
-0.00115378
-0.00123183
-0.00130816
-0.00138221
-0.00145353
-0.0015218
-0.000395572
-0.000408643
-0.000432318
-0.00046523
-0.000506632
-0.000555895
-0.00061235
-0.000675229
-0.00074364
-0.00081658
-0.000892976
-0.000971728
-0.00105177
-0.00113209
-0.00121179
-0.00129011
-0.00136641
-0.00144017
-0.00151101
-0.00157867
-0.000414842
-0.000429253
-0.000455245
-0.000491164
-0.000536016
-0.000588953
-0.000649101
-0.000715515
-0.000787156
-0.00086292
-0.000941672
-0.00102229
-0.00110372
-0.00118499
-0.00126525
-0.0013438
-0.00142005
-0.00149355
-0.00156398
-0.00163109
-0.000432968
-0.000448624
-0.000476751
-0.00051541
-0.000563379
-0.000619608
-0.000683041
-0.000752571
-0.000827041
-0.000905258
-0.000986044
-0.00106827
-0.00115088
-0.00123295
-0.00131368
-0.00139242
-0.00146863
-0.0015419
-0.00161197
-0.00167863
-0.00044949
-0.000466289
-0.000496343
-0.000537437
-0.00058815
-0.000647257
-0.000713541
-0.000785761
-0.000862654
-0.000942963
-0.00102547
-0.00110904
-0.00119265
-0.0012754
-0.00135653
-0.00143542
-0.00151159
-0.00158468
-0.00165444
-0.00172073
-0.000463883
-0.000481706
-0.000513458
-0.000556649
-0.000609693
-0.000671228
-0.000739902
-0.000814364
-0.000893269
-0.000975308
-0.00105924
-0.00114393
-0.00122836
-0.00131166
-0.00139312
-0.00147214
-0.00154829
-0.00162124
-0.00169076
-0.00175673
-0.000475685
-0.000494313
-0.00052738
-0.000572212
-0.000627091
-0.000690531
-0.000761071
-0.000837271
-0.000917726
-0.00100109
-0.00108611
-0.00117164
-0.0012567
-0.00134043
-0.00142214
-0.00150127
-0.00157742
-0.00165026
-0.0017196
-0.00178531
-0.000484854
-0.000504915
-0.000539504
-0.000585829
-0.000642286
-0.000707357
-0.0007795
-0.000857209
-0.000939029
-0.00102358
-0.00110959
-0.00119592
-0.00128159
-0.00136576
-0.00144777
-0.00152709
-0.00160333
-0.0016762
-0.00174553
-0.00181122
0.0181219
0.0117662
0.000257839
-0.00776657
-0.00739513
-0.00388999
-0.00197436
-0.00167796
-0.00174333
-0.00174774
-0.00176232
-0.00183275
-0.0019366
-0.00205475
-0.00218234
-0.00231794
-0.00245988
-0.00260666
-0.00275731
-0.00291117
-0.0030678
-0.00322691
-0.00338828
-0.00355179
-0.00371737
-0.00388498
-0.00405462
-0.00422632
-0.00440011
-0.00457605
-0.00475421
-0.00493464
-0.00511743
-0.00530267
-0.00549044
-0.00568082
-0.00587391
-0.0060698
-0.00626858
-0.00647035
-0.0066752
-0.00688323
-0.00709454
-0.00730922
-0.00752736
-0.00774908
-0.00797445
-0.00820358
-0.00843658
-0.00867352
-0.00891452
-0.00915967
-0.00940906
-0.00966281
-0.00992099
-0.0101837
-0.0104511
-0.0107232
-0.0110002
-0.0112821
-0.0115691
-0.0118612
-0.0121585
-0.0124613
-0.0127695
-0.0130832
-0.0134027
-0.0137279
-0.0140591
-0.0143962
-0.0147395
-0.015089
-0.0154449
-0.0158073
-0.0161763
-0.016552
-0.0169345
-0.017324
-0.0177206
-0.0181244
-0.0185356
-0.0189543
-0.0193806
-0.0198146
-0.0202565
-0.0207065
-0.0211646
-0.0216309
-0.0221056
-0.0225888
-0.0230806
-0.0235809
-0.0240898
-0.0246074
-0.0251318
-0.0256669
-0.0261955
-0.026743
-0.0272186
-0.0276407
0.0170672
0.011649
0.000382432
-0.00763925
-0.00734091
-0.00387479
-0.0019711
-0.00167848
-0.00174389
-0.00174777
-0.00176223
-0.00183266
-0.00193656
-0.00205471
-0.0021823
-0.00231791
-0.00245986
-0.00260664
-0.00275729
-0.00291115
-0.00306779
-0.0032269
-0.00338827
-0.00355179
-0.00371736
-0.00388497
-0.00405462
-0.00422632
-0.00440011
-0.00457605
-0.0047542
-0.00493464
-0.00511743
-0.00530267
-0.00549043
-0.00568081
-0.0058739
-0.0060698
-0.00626858
-0.00647035
-0.0066752
-0.00688323
-0.00709454
-0.00730922
-0.00752736
-0.00774908
-0.00797445
-0.00820358
-0.00843657
-0.00867352
-0.00891452
-0.00915967
-0.00940906
-0.00966281
-0.00992099
-0.0101837
-0.0104511
-0.0107232
-0.0110002
-0.0112821
-0.0115691
-0.0118612
-0.0121585
-0.0124613
-0.0127695
-0.0130832
-0.0134027
-0.0137279
-0.0140591
-0.0143962
-0.0147395
-0.015089
-0.0154449
-0.0158073
-0.0161763
-0.016552
-0.0169345
-0.017324
-0.0177206
-0.0181244
-0.0185356
-0.0189543
-0.0193806
-0.0198146
-0.0202565
-0.0207065
-0.0211646
-0.0216309
-0.0221056
-0.0225888
-0.0230806
-0.0235809
-0.0240898
-0.0246074
-0.0251318
-0.0256669
-0.0261955
-0.026743
-0.0272187
-0.0276407
0.0161831
0.0115888
0.000667085
-0.00733892
-0.00719482
-0.00382998
-0.00196359
-0.00167935
-0.00174483
-0.00174783
-0.00176211
-0.00183258
-0.00193649
-0.00205465
-0.00218224
-0.00231787
-0.00245982
-0.00260661
-0.00275727
-0.00291113
-0.00306777
-0.00322688
-0.00338826
-0.00355178
-0.00371736
-0.00388497
-0.00405461
-0.00422631
-0.00440011
-0.00457605
-0.0047542
-0.00493463
-0.00511743
-0.00530267
-0.00549043
-0.00568081
-0.0058739
-0.00606979
-0.00626858
-0.00647035
-0.0066752
-0.00688323
-0.00709454
-0.00730922
-0.00752736
-0.00774908
-0.00797445
-0.00820358
-0.00843657
-0.00867352
-0.00891452
-0.00915967
-0.00940906
-0.00966281
-0.00992099
-0.0101837
-0.0104511
-0.0107232
-0.0110002
-0.0112821
-0.0115691
-0.0118612
-0.0121585
-0.0124613
-0.0127695
-0.0130832
-0.0134027
-0.0137279
-0.0140591
-0.0143962
-0.0147395
-0.015089
-0.0154449
-0.0158073
-0.0161763
-0.016552
-0.0169345
-0.017324
-0.0177206
-0.0181244
-0.0185356
-0.0189543
-0.0193806
-0.0198146
-0.0202565
-0.0207065
-0.0211646
-0.0216309
-0.0221056
-0.0225888
-0.0230806
-0.0235809
-0.0240898
-0.0246074
-0.0251318
-0.0256669
-0.0261955
-0.0267431
-0.0272187
-0.0276408
0.0153658
0.0115237
0.00102057
-0.00695376
-0.00700172
-0.00377036
-0.00195202
-0.00167956
-0.00174567
-0.00174781
-0.00176191
-0.00183245
-0.00193638
-0.00205454
-0.00218216
-0.0023178
-0.00245977
-0.00260658
-0.00275724
-0.00291111
-0.00306775
-0.00322687
-0.00338825
-0.00355177
-0.00371735
-0.00388496
-0.00405461
-0.00422631
-0.0044001
-0.00457604
-0.0047542
-0.00493463
-0.00511743
-0.00530267
-0.00549043
-0.00568081
-0.0058739
-0.00606979
-0.00626858
-0.00647034
-0.0066752
-0.00688323
-0.00709454
-0.00730922
-0.00752736
-0.00774908
-0.00797445
-0.00820358
-0.00843657
-0.00867352
-0.00891452
-0.00915967
-0.00940906
-0.00966281
-0.00992099
-0.0101837
-0.0104511
-0.0107232
-0.0110002
-0.0112821
-0.0115691
-0.0118612
-0.0121585
-0.0124613
-0.0127695
-0.0130832
-0.0134027
-0.0137279
-0.0140591
-0.0143962
-0.0147395
-0.015089
-0.0154449
-0.0158073
-0.0161763
-0.016552
-0.0169345
-0.017324
-0.0177206
-0.0181244
-0.0185356
-0.0189543
-0.0193806
-0.0198146
-0.0202565
-0.0207065
-0.0211646
-0.0216309
-0.0221056
-0.0225888
-0.0230806
-0.0235809
-0.0240898
-0.0246074
-0.0251318
-0.0256669
-0.0261955
-0.0267431
-0.0272187
-0.0276408
0.0145454
0.0114165
0.00137828
-0.00655578
-0.00680065
-0.00370717
-0.00193757
-0.00167806
-0.00174577
-0.00174752
-0.00176157
-0.00183222
-0.00193621
-0.0020544
-0.00218204
-0.00231771
-0.00245971
-0.00260653
-0.0027572
-0.00291108
-0.00306773
-0.00322686
-0.00338824
-0.00355176
-0.00371734
-0.00388496
-0.00405461
-0.00422631
-0.0044001
-0.00457604
-0.0047542
-0.00493463
-0.00511743
-0.00530267
-0.00549043
-0.00568081
-0.0058739
-0.0060698
-0.00626858
-0.00647035
-0.0066752
-0.00688323
-0.00709454
-0.00730922
-0.00752736
-0.00774908
-0.00797445
-0.00820358
-0.00843658
-0.00867352
-0.00891452
-0.00915967
-0.00940906
-0.00966281
-0.00992099
-0.0101837
-0.0104511
-0.0107232
-0.0110002
-0.0112821
-0.0115691
-0.0118612
-0.0121585
-0.0124613
-0.0127695
-0.0130832
-0.0134027
-0.0137279
-0.0140591
-0.0143962
-0.0147395
-0.015089
-0.0154449
-0.0158073
-0.0161763
-0.016552
-0.0169345
-0.017324
-0.0177206
-0.0181244
-0.0185356
-0.0189543
-0.0193806
-0.0198146
-0.0202565
-0.0207065
-0.0211646
-0.0216309
-0.0221056
-0.0225888
-0.0230806
-0.0235809
-0.0240898
-0.0246074
-0.0251318
-0.0256669
-0.0261955
-0.0267431
-0.0272188
-0.0276409
0.0137318
0.0112585
0.00172141
-0.00615504
-0.00659396
-0.00364052
-0.00192052
-0.00167469
-0.00174511
-0.00174696
-0.00176109
-0.00183189
-0.00193596
-0.0020542
-0.0021819
-0.00231761
-0.00245963
-0.00260647
-0.00275716
-0.00291105
-0.00306771
-0.00322684
-0.00338823
-0.00355175
-0.00371734
-0.00388496
-0.00405461
-0.00422631
-0.0044001
-0.00457605
-0.0047542
-0.00493463
-0.00511743
-0.00530267
-0.00549043
-0.00568082
-0.00587391
-0.0060698
-0.00626858
-0.00647035
-0.0066752
-0.00688323
-0.00709454
-0.00730922
-0.00752736
-0.00774908
-0.00797445
-0.00820358
-0.00843658
-0.00867352
-0.00891452
-0.00915967
-0.00940906
-0.00966281
-0.00992099
-0.0101837
-0.0104511
-0.0107232
-0.0110002
-0.0112821
-0.0115691
-0.0118612
-0.0121585
-0.0124613
-0.0127695
-0.0130832
-0.0134027
-0.0137279
-0.0140591
-0.0143962
-0.0147395
-0.015089
-0.0154449
-0.0158073
-0.0161763
-0.016552
-0.0169345
-0.017324
-0.0177206
-0.0181244
-0.0185356
-0.0189543
-0.0193806
-0.0198146
-0.0202565
-0.0207065
-0.0211646
-0.0216309
-0.0221056
-0.0225888
-0.0230806
-0.0235809
-0.0240898
-0.0246074
-0.0251318
-0.0256669
-0.0261955
-0.0267431
-0.0272189
-0.0276409
0.0129296
0.0110473
0.00205507
-0.00574287
-0.00637982
-0.00357215
-0.00190174
-0.00166949
-0.00174351
-0.00174602
-0.00176039
-0.00183141
-0.00193562
-0.00205396
-0.00218172
-0.00231748
-0.00245954
-0.00260641
-0.00275711
-0.00291102
-0.00306769
-0.00322683
-0.00338822
-0.00355175
-0.00371734
-0.00388496
-0.00405461
-0.00422631
-0.00440011
-0.00457605
-0.0047542
-0.00493464
-0.00511743
-0.00530267
-0.00549044
-0.00568082
-0.00587391
-0.0060698
-0.00626858
-0.00647035
-0.0066752
-0.00688324
-0.00709454
-0.00730922
-0.00752737
-0.00774908
-0.00797445
-0.00820359
-0.00843658
-0.00867352
-0.00891452
-0.00915967
-0.00940906
-0.00966281
-0.00992099
-0.0101837
-0.0104511
-0.0107232
-0.0110002
-0.0112821
-0.0115691
-0.0118612
-0.0121585
-0.0124613
-0.0127695
-0.0130832
-0.0134027
-0.0137279
-0.0140591
-0.0143962
-0.0147395
-0.015089
-0.0154449
-0.0158073
-0.0161763
-0.016552
-0.0169345
-0.017324
-0.0177206
-0.0181244
-0.0185356
-0.0189543
-0.0193806
-0.0198146
-0.0202565
-0.0207065
-0.0211646
-0.0216309
-0.0221056
-0.0225888
-0.0230806
-0.0235809
-0.0240898
-0.0246074
-0.0251318
-0.0256669
-0.0261955
-0.0267432
-0.027219
-0.027641
0.0121448
0.0107917
0.0023836
-0.00531945
-0.00616098
-0.00350345
-0.00188127
-0.0016622
-0.00174084
-0.00174466
-0.00175947
-0.00183079
-0.0019352
-0.00205365
-0.0021815
-0.00231733
-0.00245943
-0.00260633
-0.00275707
-0.00291099
-0.00306767
-0.00322681
-0.00338822
-0.00355175
-0.00371734
-0.00388496
-0.00405461
-0.00422631
-0.00440011
-0.00457606
-0.00475421
-0.00493464
-0.00511744
-0.00530268
-0.00549044
-0.00568082
-0.00587391
-0.0060698
-0.00626858
-0.00647035
-0.00667521
-0.00688324
-0.00709455
-0.00730922
-0.00752737
-0.00774908
-0.00797446
-0.00820359
-0.00843658
-0.00867353
-0.00891452
-0.00915967
-0.00940906
-0.00966281
-0.00992099
-0.0101837
-0.0104511
-0.0107232
-0.0110002
-0.0112821
-0.0115691
-0.0118612
-0.0121585
-0.0124613
-0.0127695
-0.0130832
-0.0134027
-0.0137279
-0.0140591
-0.0143962
-0.0147395
-0.015089
-0.0154449
-0.0158073
-0.0161763
-0.016552
-0.0169345
-0.017324
-0.0177206
-0.0181244
-0.0185356
-0.0189543
-0.0193806
-0.0198146
-0.0202565
-0.0207065
-0.0211646
-0.0216309
-0.0221056
-0.0225888
-0.0230806
-0.0235809
-0.0240898
-0.0246074
-0.0251318
-0.025667
-0.0261955
-0.0267432
-0.0272192
-0.0276411
0.0113878
0.0104961
0.00269928
-0.0048891
-0.00593753
-0.00343384
-0.00185895
-0.00165271
-0.001737
-0.00174284
-0.0017583
-0.00183001
-0.00193467
-0.00205329
-0.00218125
-0.00231716
-0.00245931
-0.00260625
-0.00275701
-0.00291095
-0.00306765
-0.0032268
-0.00338821
-0.00355175
-0.00371734
-0.00388497
-0.00405462
-0.00422632
-0.00440012
-0.00457606
-0.00475422
-0.00493465
-0.00511745
-0.00530269
-0.00549045
-0.00568083
-0.00587392
-0.00606981
-0.00626859
-0.00647036
-0.00667521
-0.00688324
-0.00709455
-0.00730923
-0.00752737
-0.00774908
-0.00797446
-0.00820359
-0.00843658
-0.00867353
-0.00891453
-0.00915967
-0.00940906
-0.00966281
-0.009921
-0.0101837
-0.0104511
-0.0107232
-0.0110002
-0.0112821
-0.0115691
-0.0118612
-0.0121585
-0.0124613
-0.0127695
-0.0130832
-0.0134027
-0.0137279
-0.0140591
-0.0143962
-0.0147395
-0.015089
-0.0154449
-0.0158073
-0.0161763
-0.016552
-0.0169345
-0.017324
-0.0177206
-0.0181244
-0.0185356
-0.0189543
-0.0193806