/*--------------------------------*- C++ -*----------------------------------*\
| =========                 |                                                 |
| \\      /  F ield         | OpenFOAM: The Open Source CFD Toolbox           |
|  \\    /   O peration     | Version:  2106                                  |
|   \\  /    A nd           | Website:  www.openfoam.com                      |
|    \\/     M anipulation  |                                                 |
\*---------------------------------------------------------------------------*/
FoamFile
{
    version     2.0;
    format      ascii;
    arch        "LSB;label=32;scalar=64";
    class       surfaceScalarField;
    location    "0.165";
    object      phi;
}
// * * * * * * * * * * * * * * * * * * * * * * * * * * * * * * * * * * * * * //

dimensions      [0 3 -1 0 0 0 0];

oriented        oriented;

internalField   nonuniform List<scalar> 
19000
(
1.17699e-06
3.63592e-08
1.15702e-06
5.04515e-07
1.16265e-06
4.68858e-08
1.15675e-06
-7.11436e-07
1.1762e-06
-1.01319e-06
1.16869e-06
-4.63501e-07
1.17332e-06
2.93666e-07
1.16502e-06
4.40664e-07
1.17892e-06
4.30579e-07
1.15551e-06
8.15626e-08
1.16328e-06
-1.80379e-07
1.1831e-06
-1.40169e-07
1.17875e-06
-2.65724e-07
1.15257e-06
-1.65175e-07
1.16336e-06
2.00963e-07
1.14043e-06
-4.784e-08
1.16155e-06
3.18681e-07
1.1385e-06
1.29535e-07
1.1451e-06
1.60484e-07
1.34125e-07
1.1181e-06
1.23108e-06
2.95383e-08
1.21691e-06
5.18691e-07
1.21649e-06
4.73001e-08
1.20932e-06
-7.04266e-07
1.23196e-06
-1.03583e-06
1.22477e-06
-4.56308e-07
1.22675e-06
2.91684e-07
1.22472e-06
4.42694e-07
1.23208e-06
4.2322e-07
1.2172e-06
9.64422e-08
1.21909e-06
-1.82273e-07
1.2417e-06
-1.6278e-07
1.23419e-06
-2.58209e-07
1.21471e-06
-1.45694e-07
1.21358e-06
2.02091e-07
1.20355e-06
-3.78125e-08
1.2043e-06
3.17934e-07
1.21002e-06
1.23818e-07
1.18451e-06
1.8599e-07
1.16184e-07
1.20245e-06
1.28647e-06
2.58537e-08
1.27928e-06
5.25876e-07
1.27338e-06
5.32043e-08
1.2668e-06
-6.97684e-07
1.2878e-06
-1.05684e-06
1.28409e-06
-4.52597e-07
1.28204e-06
2.9374e-07
1.28803e-06
4.36697e-07
1.28871e-06
4.22544e-07
1.2838e-06
1.01347e-07
1.27805e-06
-1.76515e-07
1.3006e-06
-1.85335e-07
1.29054e-06
-2.48144e-07
1.2783e-06
-1.33452e-07
1.27119e-06
2.09193e-07
1.26748e-06
-3.40995e-08
1.26549e-06
3.19925e-07
1.2728e-06
1.16503e-07
1.25804e-06
2.00756e-07
1.20899e-07
1.25332e-06
1.3442e-06
2.57577e-08
1.34331e-06
5.26765e-07
1.33358e-06
6.2937e-08
1.32878e-06
-6.92883e-07
1.34423e-06
-1.07229e-06
1.34539e-06
-4.53761e-07
1.34134e-06
2.97794e-07
1.35209e-06
4.25948e-07
1.35048e-06
4.24148e-07
1.35086e-06
1.00971e-07
1.34138e-06
-1.67041e-07
1.35786e-06
-2.01811e-07
1.34976e-06
-2.40042e-07
1.34085e-06
-1.24547e-07
1.33508e-06
2.1496e-07
1.3311e-06
-3.01129e-08
1.33301e-06
3.18014e-07
1.3359e-06
1.13608e-07
1.3311e-06
2.05562e-07
1.33503e-07
1.31849e-06
1.40569e-06
2.84213e-08
1.40926e-06
5.23196e-07
1.39805e-06
7.41422e-08
1.39418e-06
-6.89007e-07
1.40236e-06
-1.08047e-06
1.4076e-06
-4.59003e-07
1.40567e-06
2.99722e-07
1.41737e-06
4.1425e-07
1.4172e-06
4.24321e-07
1.4183e-06
9.98677e-08
1.40822e-06
-1.56961e-07
1.4168e-06
-2.10384e-07
1.41117e-06
-2.34417e-07
1.4052e-06
-1.1858e-07
1.40223e-06
2.17934e-07
1.39743e-06
-2.53122e-08
1.40159e-06
3.13853e-07
1.40162e-06
1.13577e-07
1.4013e-06
2.0588e-07
1.47412e-07
1.3874e-06
1.47189e-06
3.22042e-08
1.47795e-06
5.1714e-07
1.46751e-06
8.45848e-08
1.46266e-06
-6.8416e-07
1.46392e-06
-1.08173e-06
1.47164e-06
-4.66721e-07
1.47474e-06
2.96622e-07
1.48577e-06
4.03223e-07
1.48776e-06
4.22326e-07
1.48761e-06
1.00024e-07
1.47743e-06
-1.46789e-07
1.47968e-06
-2.12634e-07
1.47454e-06
-2.29276e-07
1.47179e-06
-1.15827e-07
1.47195e-06
2.17778e-07
1.46715e-06
-2.05131e-08
1.47275e-06
3.08248e-07
1.47057e-06
1.15762e-07
1.47276e-06
2.03682e-07
1.61732e-07
1.45844e-06
1.54288e-06
3.55394e-08
1.55016e-06
5.09862e-07
1.54183e-06
9.29138e-08
1.53462e-06
-6.76953e-07
1.53012e-06
-1.07723e-06
1.53903e-06
-4.75625e-07
1.54754e-06
2.88109e-07
1.55809e-06
3.92674e-07
1.5612e-06
4.19222e-07
1.55946e-06
1.01757e-07
1.54879e-06
-1.36115e-07
1.54684e-06
-2.10685e-07
1.54073e-06
-2.23167e-07
1.5404e-06
-1.15501e-07
1.54376e-06
2.14428e-07
1.53962e-06
-1.63773e-08
1.5469e-06
3.00966e-07
1.54267e-06
1.19999e-07
1.54656e-06
1.99789e-07
1.7629e-07
1.532e-06
1.61801e-06
3.76553e-08
1.62611e-06
5.01767e-07
1.62028e-06
9.87368e-08
1.61053e-06
-6.67195e-07
1.60127e-06
-1.06797e-06
1.61042e-06
-4.84774e-07
1.623e-06
2.75528e-07
1.63362e-06
3.82053e-07
1.63684e-06
4.16004e-07
1.63387e-06
1.04723e-07
1.62262e-06
-1.24867e-07
1.61804e-06
-2.06102e-07
1.6106e-06
-2.15725e-07
1.61147e-06
-1.16369e-07
1.61743e-06
2.08467e-07
1.614e-06
-1.29495e-08
1.62325e-06
2.9171e-07
1.61723e-06
1.26022e-07
1.62235e-06
1.9467e-07
1.907e-07
1.60794e-06
1.69657e-06
3.86557e-08
1.70551e-06
4.92835e-07
1.70203e-06
1.02213e-07
1.69049e-06
-6.55656e-07
1.67715e-06
-1.05464e-06
1.68552e-06
-4.93136e-07
1.70021e-06
2.60832e-07
1.71108e-06
3.71187e-07
1.71422e-06
4.12858e-07
1.71074e-06
1.08203e-07
1.69933e-06
-1.13457e-07
1.6932e-06
-1.99973e-07
1.68465e-06
-2.07175e-07
1.68559e-06
-1.17304e-07
1.69326e-06
2.00794e-07
1.68997e-06
-9.65203e-09
1.70112e-06
2.80556e-07
1.69369e-06
1.33454e-07
1.69972e-06
1.8864e-07
2.04299e-07
1.68612e-06
1.77829e-06
3.90853e-08
1.78805e-06
4.83079e-07
1.78657e-06
1.03692e-07
1.77434e-06
-6.43426e-07
1.75751e-06
-1.03781e-06
1.76386e-06
-4.99482e-07
1.77876e-06
2.45935e-07
1.78975e-06
3.60191e-07
1.79331e-06
4.09306e-07
1.79024e-06
1.1127e-07
1.77927e-06
-1.02493e-07
1.7724e-06
-1.931e-07
1.7632e-06
-1.97977e-07
1.7633e-06
-1.17397e-07
1.77186e-06
1.92228e-07
1.76791e-06
-5.69967e-09
1.78052e-06
2.67949e-07
1.77209e-06
1.41882e-07
1.7787e-06
1.82033e-07
2.16289e-07
1.76671e-06
1.86338e-06
3.94554e-08
1.87379e-06
4.72671e-07
1.8739e-06
1.03581e-07
1.86184e-06
-6.31373e-07
1.84218e-06
-1.01815e-06
1.84547e-06
-5.02765e-07
1.85908e-06
2.32324e-07
1.87007e-06
3.492e-07
1.87471e-06
4.04669e-07
1.87287e-06
1.1311e-07
1.86286e-06
-9.24883e-08
1.85576e-06
-1.85998e-07
1.84642e-06
-1.88641e-07
1.84504e-06
-1.16017e-07
1.85393e-06
1.83338e-07
1.84874e-06
-5.02907e-10
1.86222e-06
2.5447e-07
1.85323e-06
1.50863e-07
1.85996e-06
1.75311e-07
2.25932e-07
1.85031e-06
1.95226e-06
4.00331e-08
1.9631e-06
4.61831e-07
1.96437e-06
1.02313e-07
1.9529e-06
-6.199e-07
1.9311e-06
-9.96357e-07
1.93088e-06
-5.02548e-07
1.94242e-06
2.20789e-07
1.95336e-06
3.38255e-07
1.95955e-06
3.98482e-07
1.95932e-06
1.13337e-07
1.95055e-06
-8.37117e-08
1.94341e-06
-1.78861e-07
1.93438e-06
-1.79617e-07
1.93125e-06
-1.12883e-07
1.94018e-06
1.74412e-07
1.93353e-06
6.1436e-09
1.94735e-06
2.40651e-07
1.93829e-06
1.59925e-07
1.94455e-06
1.69055e-07
2.32709e-07
1.93777e-06
2.04535e-06
4.08731e-08
2.05648e-06
4.50697e-07
2.0585e-06
1.00295e-07
2.04759e-06
-6.08994e-07
2.02428e-06
-9.73047e-07
2.02084e-06
-4.99102e-07
2.03026e-06
2.11372e-07
2.04117e-06
3.27338e-07
2.049e-06
3.9066e-07
2.05026e-06
1.1207e-07
2.04274e-06
-7.61904e-08
2.03549e-06
-1.7161e-07
2.02709e-06
-1.71212e-07
2.02225e-06
-1.08043e-07
2.03115e-06
1.65505e-07
2.02323e-06
1.40712e-08
2.03694e-06
2.26936e-07
2.02829e-06
1.6858e-07
2.0335e-06
1.63843e-07
2.36397e-07
2.02981e-06
2.14294e-06
4.19335e-08
2.15434e-06
4.39299e-07
2.15679e-06
9.78492e-08
2.14621e-06
-5.9842e-07
2.12184e-06
-9.4868e-07
2.11589e-06
-4.93149e-07
2.12367e-06
2.03592e-07
2.13458e-06
3.16425e-07
2.14383e-06
3.81413e-07
2.14612e-06
1.09776e-07
2.13975e-06
-6.98157e-08
2.13216e-06
-1.64021e-07
2.12452e-06
-1.63576e-07
2.11823e-06
-1.01751e-07
2.12716e-06
1.56579e-07
2.11837e-06
2.28646e-08
2.1316e-06
2.13707e-07
2.1238e-06
1.7637e-07
2.12759e-06
1.60061e-07
2.3711e-07
2.12687e-06
2.24526e-06
4.31609e-08
2.25696e-06
4.27598e-07
2.25963e-06
9.51833e-08
2.24911e-06
-5.87898e-07
2.22397e-06
-9.2354e-07
2.2163e-06
-4.85484e-07
2.2231e-06
1.96793e-07
2.234e-06
3.05529e-07
2.24436e-06
3.71047e-07
2.24712e-06
1.07022e-07
2.24175e-06
-6.44534e-08
2.23359e-06
-1.5586e-07
2.22674e-06
-1.56727e-07
2.21934e-06
-9.43452e-08
2.22828e-06
1.47637e-07
2.21914e-06
3.19993e-08
2.23152e-06
2.01333e-07
2.22498e-06
1.82906e-07
2.22726e-06
1.57785e-07
2.35281e-07
2.22909e-06
2.35251e-06
4.4523e-08
2.36457e-06
4.1554e-07
2.36734e-06
9.24122e-08
2.35665e-06
-5.77208e-07
2.3309e-06
-8.97789e-07
2.32215e-06
-4.76729e-07
2.32854e-06
1.90398e-07
2.33937e-06
2.947e-07
2.3506e-06
3.59816e-07
2.35333e-06
1.04297e-07
2.34888e-06
-6.00021e-08
2.34e-06
-1.46982e-07
2.33386e-06
-1.50585e-07
2.32568e-06
-8.61709e-08
2.33451e-06
1.38809e-07
2.32555e-06
4.09611e-08
2.33673e-06
1.90151e-07
2.33171e-06
1.87925e-07
2.33266e-06
1.56835e-07
2.31512e-07
2.33643e-06
2.46491e-06
4.60087e-08
2.47737e-06
4.03077e-07
2.48019e-06
8.9592e-08
2.46919e-06
-5.66203e-07
2.44292e-06
-8.71524e-07
2.43345e-06
-4.67257e-07
2.43984e-06
1.84013e-07
2.45052e-06
2.8402e-07
2.46248e-06
3.47858e-07
2.46484e-06
1.01935e-07
2.46123e-06
-5.6396e-08
2.45161e-06
-1.37361e-07
2.44602e-06
-1.44996e-07
2.43742e-06
-7.75755e-08
2.44589e-06
1.30348e-07
2.43754e-06
4.93114e-08
2.44728e-06
1.80403e-07
2.44386e-06
1.91349e-07
2.4438e-06
1.56897e-07
2.26381e-07
2.44893e-06
2.58268e-06
4.7618e-08
2.59558e-06
3.90178e-07
2.59843e-06
8.67481e-08
2.58702e-06
-5.54792e-07
2.56031e-06
-8.44819e-07
2.5503e-06
-4.57242e-07
2.55691e-06
1.77403e-07
2.56734e-06
2.73584e-07
2.57998e-06
3.35218e-07
2.58179e-06
1.00129e-07
2.57897e-06
-5.3577e-08
2.56869e-06
-1.27076e-07
2.56344e-06
-1.39746e-07
2.55477e-06
-6.89105e-08
2.56254e-06
1.22574e-07
2.55512e-06
5.67333e-08
2.56339e-06
1.72135e-07
2.56138e-06
1.93356e-07
2.56074e-06
1.57541e-07
2.20415e-07
2.56671e-06
2.70609e-06
4.93551e-08
2.71945e-06
3.76823e-07
2.7223e-06
8.38913e-08
2.71042e-06
-5.42912e-07
2.68335e-06
-8.17746e-07
2.67284e-06
-4.46733e-07
2.67981e-06
1.70432e-07
2.6899e-06
2.63497e-07
2.70322e-06
3.21895e-07
2.70439e-06
9.89584e-08
2.70228e-06
-5.14634e-08
2.69151e-06
-1.16307e-07
2.68633e-06
-1.34565e-07
2.67795e-06
-6.05273e-08
2.68472e-06
1.15802e-07
2.67839e-06
6.30581e-08
2.68534e-06
1.65187e-07
2.68443e-06
1.94265e-07
2.68361e-06
1.58365e-07
2.14024e-07
2.69e-06
2.8354e-06
5.12234e-08
2.84922e-06
3.63003e-07
2.85209e-06
8.10218e-08
2.83968e-06
-5.30507e-07
2.81232e-06
-7.90385e-07
2.80131e-06
-4.35721e-07
2.80873e-06
1.63015e-07
2.81837e-06
2.53853e-07
2.83238e-06
3.07888e-07
2.83292e-06
9.8421e-08
2.83138e-06
-4.99235e-08
2.82038e-06
-1.05313e-07
2.81496e-06
-1.29138e-07
2.80718e-06
-5.27509e-08
2.81272e-06
1.10261e-07
2.80747e-06
6.8305e-08
2.81342e-06
1.59245e-07
2.81329e-06
1.94396e-07
2.81253e-06
1.59119e-07
2.07428e-07
2.81913e-06
2.9709e-06
5.32239e-08
2.98517e-06
3.48724e-07
2.98807e-06
7.81301e-08
2.97508e-06
-5.17521e-07
2.94752e-06
-7.62827e-07
2.93597e-06
-4.24166e-07
2.9439e-06
1.55087e-07
2.95302e-06
2.44732e-07
2.96768e-06
2.93227e-07
2.96766e-06
9.84339e-08
2.9665e-06
-4.87615e-08
2.9556e-06
-9.44107e-08
2.94961e-06
-1.23145e-07
2.94269e-06
-4.58349e-08
2.94693e-06
1.06027e-07
2.94255e-06
7.26825e-08
2.94786e-06
1.53937e-07
2.9483e-06
1.9395e-07
2.94771e-06
1.59715e-07
2.00705e-07
2.95443e-06
3.11288e-06
5.53542e-08
3.1276e-06
3.34002e-07
3.13053e-06
7.51944e-08
3.1169e-06
-5.03892e-07
3.08925e-06
-7.35176e-07
3.07711e-06
-4.1202e-07
3.08559e-06
1.466e-07
3.09414e-06
2.3618e-07
3.10937e-06
2.77997e-07
3.10896e-06
9.8846e-08
3.10793e-06
-4.77259e-08
3.09747e-06
-8.395e-08
3.09061e-06
-1.16288e-07
3.0847e-06
-3.99285e-08
3.08776e-06
1.0297e-07
3.08389e-06
7.65516e-08
3.08889e-06
1.48942e-07
3.08985e-06
1.92988e-07
3.08937e-06
1.60192e-07
1.93851e-07
3.09622e-06
3.26166e-06
5.76075e-08
3.27679e-06
3.18871e-07
3.2798e-06
7.21791e-08
3.26546e-06
-4.89549e-07
3.23783e-06
-7.07542e-07
3.22504e-06
-3.9923e-07
3.23411e-06
1.37526e-07
3.24209e-06
2.28203e-07
3.25774e-06
2.62344e-07
3.25715e-06
9.9436e-08
3.25595e-06
-4.65219e-08
3.24626e-06
-7.42638e-08
3.23832e-06
-1.08348e-07
3.23338e-06
-3.4989e-08
3.2356e-06
1.0075e-07
3.23188e-06
8.02718e-08
3.23672e-06
1.44103e-07
3.23828e-06
1.91429e-07
3.23782e-06
1.60647e-07
1.86864e-07
3.24481e-06
3.41757e-06
5.99721e-08
3.43306e-06
3.03379e-07
3.4362e-06
6.90331e-08
3.42107e-06
-4.74418e-07
3.39358e-06
-6.80047e-07
3.3801e-06
-3.85751e-07
3.38976e-06
1.27865e-07
3.39721e-06
2.20757e-07
3.41308e-06
2.46471e-07
3.41257e-06
9.99423e-08
3.4109e-06
-4.485e-08
3.40224e-06
-6.56056e-08
3.39318e-06
-9.92826e-08
3.38896e-06
-3.07666e-08
3.39075e-06
9.89579e-08
3.38698e-06
8.40368e-08
3.39163e-06
1.39457e-07
3.39393e-06
1.89133e-07
3.39343e-06
1.61145e-07
1.7981e-07
3.40048e-06
3.58095e-06
6.24302e-08
3.59674e-06
2.87596e-07
3.60008e-06
6.56906e-08
3.58408e-06
-4.58419e-07
3.55685e-06
-6.52816e-07
3.54265e-06
-3.71552e-07
3.55286e-06
1.17655e-07
3.55987e-06
2.13742e-07
3.57571e-06
2.30638e-07
3.57557e-06
1.00074e-07
3.57316e-06
-4.24401e-08
3.56564e-06
-5.80847e-08
3.55565e-06
-8.92883e-08
3.55174e-06
-2.68527e-08
3.55347e-06
9.7226e-08
3.54964e-06
8.78619e-08
3.55396e-06
1.35144e-07
3.55709e-06
1.86e-07
3.55657e-06
1.61668e-07
1.7283e-07
3.56355e-06
3.75218e-06
6.49571e-08
3.76816e-06
2.71612e-07
3.77178e-06
6.20718e-08
3.75483e-06
-4.41472e-07
3.72799e-06
-6.25969e-07
3.71306e-06
-3.56628e-07
3.72374e-06
1.06983e-07
3.73048e-06
2.06999e-07
3.74596e-06
2.15158e-07
3.7465e-06
9.95336e-08
3.74315e-06
-3.90926e-08
3.73671e-06
-5.16441e-08
3.72616e-06
-7.87393e-08
3.72213e-06
-2.28246e-08
3.72404e-06
9.5323e-08
3.72027e-06
9.16282e-08
3.72411e-06
1.31299e-07
3.72807e-06
1.82039e-07
3.72764e-06
1.62098e-07
1.66121e-07
3.73435e-06
3.93162e-06
6.75202e-08
3.9477e-06
2.55538e-07
3.95169e-06
5.8086e-08
3.93372e-06
-4.23507e-07
3.90736e-06
-5.9961e-07
3.89175e-06
-3.41017e-07
3.90274e-06
9.59933e-08
3.90942e-06
2.00319e-07
3.92421e-06
2.00368e-07
3.92567e-06
9.80737e-08
3.92133e-06
-3.47573e-08
3.91573e-06
-4.60424e-08
3.90509e-06
-6.80938e-08
3.90064e-06
-1.83737e-08
3.90276e-06
9.32033e-08
3.89923e-06
9.51505e-08
3.90255e-06
1.27981e-07
3.90722e-06
1.77367e-07
3.90707e-06
1.62256e-07
1.59898e-07
3.91329e-06
4.11969e-06
7.00788e-08
4.13572e-06
2.39505e-07
4.14018e-06
5.36329e-08
4.12114e-06
-4.04466e-07
4.09534e-06
-5.73817e-07
4.07913e-06
-3.24808e-07
4.09024e-06
8.48929e-08
4.09711e-06
1.93442e-07
4.11088e-06
1.86598e-07
4.1134e-06
9.55517e-08
4.1082e-06
-2.95506e-08
4.10308e-06
-4.09244e-08
4.09275e-06
-5.77667e-08
4.08776e-06
-1.33863e-08
4.08998e-06
9.09919e-08
4.0869e-06
9.82268e-08
4.08969e-06
1.25192e-07
4.09493e-06
1.72124e-07
4.09523e-06
1.61963e-07
1.54347e-07
4.10078e-06
4.3168e-06
7.25839e-08
4.33263e-06
2.23668e-07
4.33766e-06
4.8604e-08
4.31751e-06
-3.84314e-07
4.29232e-06
-5.48629e-07
4.27567e-06
-3.08157e-07
4.28661e-06
7.39544e-08
4.29397e-06
1.86081e-07
4.30644e-06
1.74132e-07
4.31001e-06
9.19757e-08
4.30424e-06
-2.37737e-08
4.29918e-06
-3.58665e-08
4.28947e-06
-4.80608e-08
4.28403e-06
-7.94668e-09
4.28613e-06
8.88995e-08
4.28362e-06
1.00736e-07
4.28597e-06
1.22839e-07
4.29162e-06
1.66468e-07
4.29252e-06
1.61063e-07
1.49572e-07
4.2973e-06
4.52338e-06
7.49791e-08
4.53885e-06
2.08195e-07
4.54456e-06
4.28957e-08
4.5233e-06
-3.6305e-07
4.4987e-06
-5.2403e-07
4.48182e-06
-2.91285e-07
4.49229e-06
6.34847e-08
4.50039e-06
1.77982e-07
4.51139e-06
1.63139e-07
4.51583e-06
8.75303e-08
4.50991e-06
-1.78517e-08
4.50456e-06
-3.05181e-08
4.49554e-06
-3.90405e-08
4.48994e-06
-2.34008e-09
4.4917e-06
8.71343e-08
4.48977e-06
1.02662e-07
4.49183e-06
1.20782e-07
4.49774e-06
1.60554e-07
4.49937e-06
1.59443e-07
1.45562e-07
4.50338e-06
4.73989e-06
7.71993e-08
4.75482e-06
1.93272e-07
4.76131e-06
3.64072e-08
4.73898e-06
-3.40723e-07
4.71488e-06
-4.99929e-07
4.69808e-06
-2.74487e-07
4.70774e-06
5.38281e-08
4.71678e-06
1.68939e-07
4.72629e-06
1.53632e-07
4.73125e-06
8.25655e-08
4.72564e-06
-1.22436e-08
4.71979e-06
-2.46664e-08
4.71134e-06
-3.05903e-08
4.70589e-06
3.11594e-09
4.7073e-06
8.57242e-08
4.7058e-06
1.04157e-07
4.70768e-06
1.18906e-07
4.71379e-06
1.54446e-07
4.71616e-06
1.57072e-07
1.42199e-07
4.71952e-06
4.96683e-06
7.91712e-08
4.98099e-06
1.79104e-07
4.98836e-06
2.90461e-08
4.96507e-06
-3.17433e-07
4.94131e-06
-4.76175e-07
4.92493e-06
-2.5811e-07
4.93343e-06
4.53367e-08
4.94353e-06
1.58833e-07
4.95171e-06
1.45459e-07
4.95672e-06
7.75464e-08
4.95182e-06
-7.33393e-09
4.94549e-06
-1.83391e-08
4.93733e-06
-2.24294e-08
4.93227e-06
8.17377e-09
4.93344e-06
8.45542e-08
4.93226e-06
1.05341e-07
4.93396e-06
1.17206e-07
4.94019e-06
1.48212e-07
4.94336e-06
1.53905e-07
1.39341e-07
4.94621e-06
5.20467e-06
8.08135e-08
5.21788e-06
1.65899e-07
5.22618e-06
2.07442e-08
5.2021e-06
-2.9335e-07
5.17846e-06
-4.52541e-07
5.16289e-06
-2.4254e-07
5.1699e-06
3.83249e-08
5.18104e-06
1.47701e-07
5.18824e-06
1.3826e-07
5.19278e-06
7.30022e-08
5.1888e-06
-3.35182e-09
5.18225e-06
-1.17882e-08
5.17404e-06
-1.4228e-08
5.16947e-06
1.27513e-08
5.17066e-06
8.33657e-08
5.16971e-06
1.06288e-07
5.17118e-06
1.15738e-07
5.17739e-06
1.41998e-07
5.18144e-06
1.49859e-07
1.36836e-07
5.18394e-06
5.45396e-06
8.204e-08
5.46599e-06
1.53869e-07
5.47528e-06
1.14611e-08
5.45064e-06
-2.68711e-07
5.42684e-06
-4.2874e-07
5.41246e-06
-2.28166e-07
5.41778e-06
3.30079e-08
5.42971e-06
1.35773e-07
5.43641e-06
1.31555e-07
5.44005e-06
6.93684e-08
5.43699e-06
-2.92533e-10
5.4306e-06
-5.39795e-09
5.42219e-06
-5.81856e-09
5.4179e-06
1.7041e-08
5.41939e-06
8.18757e-08
5.41877e-06
1.06909e-07
5.4199e-06
1.14603e-07
5.42591e-06
1.35991e-07
5.43083e-06
1.44939e-07
1.34434e-07
5.43323e-06
5.71524e-06
8.27594e-08
5.72589e-06
1.43216e-07
5.73615e-06
1.19972e-09
5.71127e-06
-2.43828e-07
5.68699e-06
-4.04461e-07
5.67414e-06
-2.15313e-07
5.67772e-06
2.9426e-08
5.69001e-06
1.23479e-07
5.69678e-06
1.24785e-07
5.69919e-06
6.69608e-08
5.69684e-06
2.05825e-09
5.69104e-06
3.99478e-10
5.68242e-06
2.80062e-09
5.67814e-06
2.13239e-08
5.68004e-06
7.99753e-08
5.67997e-06
1.06982e-07
5.6808e-06
1.13773e-07
5.68634e-06
1.30451e-07
5.69199e-06
1.39283e-07
1.31811e-07
5.69462e-06
5.98907e-06
8.28779e-08
5.99816e-06
1.3413e-07
6.00935e-06
-9.99146e-09
5.98461e-06
-2.19082e-07
5.95952e-06
-3.79371e-07
5.94841e-06
-2.04206e-07
5.95042e-06
2.74127e-08
5.96249e-06
1.11416e-07
5.96982e-06
1.17447e-07
5.97098e-06
6.58058e-08
5.96883e-06
4.20287e-09
5.96406e-06
5.17166e-09
5.95544e-06
1.14225e-08
5.95081e-06
2.59504e-08
5.9531e-06
7.76922e-08
5.95379e-06
1.06287e-07
5.95448e-06
1.13083e-07
5.95936e-06
1.25572e-07
5.96544e-06
1.33206e-07
1.28652e-07
5.9686e-06
6.27606e-06
8.2305e-08
6.28342e-06
1.26768e-07
6.29544e-06
-2.20064e-08
6.27126e-06
-1.94905e-07
6.24507e-06
-3.53182e-07
6.23578e-06
-1.94909e-07
6.2366e-06
2.65852e-08
6.24775e-06
1.00265e-07
6.25601e-06
1.09194e-07
6.25614e-06
6.56727e-08
6.25365e-06
6.6961e-09
6.25005e-06
8.77169e-09
6.2419e-06
1.95714e-08
6.23668e-06
3.11662e-08
6.23909e-06
7.52803e-08
6.24075e-06
1.04634e-07
6.24152e-06
1.12314e-07
6.24569e-06
1.21399e-07
6.25182e-06
1.27077e-07
1.24815e-07
6.25565e-06
6.57682e-06
8.09572e-08
6.58234e-06
1.21243e-07
6.59501e-06
-3.46699e-08
6.57187e-06
-1.71771e-07
6.54435e-06
-3.25664e-07
6.53675e-06
-1.87307e-07
6.53694e-06
2.6392e-08
6.5465e-06
9.07045e-08
6.55578e-06
9.99214e-08
6.5554e-06
6.6054e-08
6.55203e-06
1.00635e-08
6.5495e-06
1.12986e-08
6.54234e-06
2.67286e-08
6.53657e-06
3.69425e-08
6.53869e-06
7.31573e-08
6.54131e-06
1.02016e-07
6.54245e-06
1.11172e-07
6.54601e-06
1.17842e-07
6.55187e-06
1.21212e-07
1.20394e-07
6.55629e-06
6.89199e-06
7.87606e-08
6.89561e-06
1.17619e-07
6.90868e-06
-4.77399e-08
6.88708e-06
-1.5017e-07
6.85809e-06
-2.96674e-07
6.8519e-06
-1.81117e-07
6.8521e-06
2.61913e-08
6.85953e-06
8.32756e-08
6.86962e-06
8.98339e-08
6.86942e-06
6.62493e-08
6.86484e-06
1.46494e-08
6.86298e-06
1.31558e-08
6.85732e-06
3.23912e-08
6.85126e-06
4.30025e-08
6.85264e-06
7.17743e-08
6.85602e-06
9.86329e-08
6.85787e-06
1.09323e-07
6.86095e-06
1.14766e-07
6.86634e-06
1.15822e-07
1.15555e-07
6.87117e-06
7.22223e-06
7.56627e-08
7.22397e-06
1.15886e-07
7.23712e-06
-6.08949e-08
7.21754e-06
-1.30592e-07
7.18707e-06
-2.66198e-07
7.18181e-06
-1.75862e-07
7.18272e-06
2.52837e-08
7.1877e-06
7.82949e-08
7.19807e-06
7.94633e-08
7.19882e-06
6.54992e-08
7.193e-06
2.0471e-08
7.1912e-06
1.49575e-08
7.18725e-06
3.63441e-08
7.18146e-06
4.87836e-08
7.18183e-06
7.14052e-08
7.18558e-06
9.48888e-08
7.18832e-06
1.06579e-07
7.19115e-06
1.11937e-07
7.19595e-06
1.11023e-07
1.10483e-07
7.20102e-06
7.56825e-06
7.16394e-08
7.56818e-06
1.15952e-07
7.58103e-06
-7.37409e-08
7.56392e-06
-1.13484e-07
7.5321e-06
-2.34374e-07
7.52718e-06
-1.70938e-07
7.52939e-06
2.30654e-08
7.53197e-06
7.57172e-08
7.54184e-06
6.95966e-08
7.54412e-06
6.32157e-08
7.53749e-06
2.70996e-08
7.53495e-06
1.74973e-08
7.53268e-06
3.86201e-08
7.5278e-06
5.36656e-08
7.52722e-06
7.19753e-08
7.53077e-06
9.13413e-08
7.53434e-06
1.03013e-07
7.53732e-06
1.08952e-07
7.54147e-06
1.06881e-07
1.05353e-07
7.5466e-06
7.93076e-06
6.66954e-08
7.92906e-06
1.17643e-07
7.94114e-06
-8.58153e-08
7.92689e-06
-9.92396e-08
7.89402e-06
-2.01502e-07
7.88874e-06
-1.6566e-07
7.89271e-06
1.90948e-08
7.89328e-06
7.51513e-08
7.90174e-06
6.11388e-08
7.90582e-06
5.91378e-08
7.89915e-06
3.3765e-08
7.89525e-06
2.13942e-08
7.89425e-06
3.96268e-08
7.8908e-06
5.71123e-08
7.88968e-06
7.3093e-08
7.89251e-06
8.85093e-08
7.8966e-06
9.89255e-08
7.90011e-06
1.05444e-07
7.90368e-06
1.03315e-07
1.00321e-07
7.90871e-06
8.3105e-06
6.08748e-08
8.30744e-06
1.20704e-07
8.31824e-06
-9.66142e-08
8.30714e-06
-8.81359e-08
8.27371e-06
-1.68076e-07
8.26734e-06
-1.59294e-07
8.27328e-06
1.3155e-08
8.27253e-06
7.59065e-08
8.27876e-06
5.49107e-08
8.28446e-06
5.34312e-08
8.27867e-06
3.95616e-08
8.27327e-06
2.67918e-08
8.27272e-06
4.01794e-08
8.27102e-06
5.88101e-08
8.26993e-06
7.41867e-08
8.27185e-06
8.65799e-08
8.27595e-06
9.48335e-08
8.28011e-06
1.0128e-07
8.28342e-06
1.00004e-07
9.55775e-08
8.28816e-06
8.70827e-06
5.4267e-08
8.70419e-06
1.24786e-07
8.71316e-06
-1.05586e-07
8.70537e-06
-8.03425e-08
8.67204e-06
-1.34749e-07
8.6639e-06
-1.51156e-07
8.67179e-06
5.26805e-09
8.67052e-06
7.71729e-08
8.67401e-06
5.14235e-08
8.68073e-06
4.67121e-08
8.67668e-06
4.36124e-08
8.67009e-06
3.33829e-08
8.66909e-06
4.11737e-08
8.66907e-06
5.88354e-08
8.66862e-06
7.46379e-08
8.66981e-06
8.53828e-08
8.67333e-06
9.13184e-08
8.67799e-06
9.66204e-08
8.68148e-06
9.65136e-08
9.12776e-08
8.68578e-06
9.12488e-06
4.70019e-08
9.12019e-06
1.29478e-07
9.12678e-06
-1.12178e-07
9.12234e-06
-7.59018e-08
9.0899e-06
-1.02307e-07
9.07942e-06
-1.40673e-07
9.08893e-06
-4.24528e-09
9.08806e-06
7.80443e-08
9.0886e-06
5.08831e-08
9.09552e-06
3.97934e-08
9.09373e-06
4.53993e-08
9.08663e-06
4.04904e-08
9.08453e-06
4.32658e-08
9.08567e-06
5.76984e-08
9.08638e-06
7.3925e-08
9.08728e-06
8.44892e-08
9.0899e-06
8.86977e-08
9.09457e-06
9.19477e-08
9.09856e-06
9.25235e-08
8.7434e-08
9.1024e-06
9.5612e-06
3.92582e-08
9.55638e-06
1.34301e-07
9.5601e-06
-1.15897e-07
9.55885e-06
-7.46525e-08
9.52821e-06
-7.16653e-08
9.515e-06
-1.27464e-07
9.5255e-06
-1.47443e-08
9.52591e-06
7.7637e-08
9.5237e-06
5.30862e-08
9.52976e-06
3.37313e-08
9.53045e-06
4.47139e-08
9.52376e-06
4.71835e-08
9.52029e-06
4.67375e-08
9.52177e-06
5.62159e-08
9.52384e-06
7.18537e-08
9.52501e-06
8.3318e-08
9.52682e-06
8.68863e-08
9.53087e-06
8.79036e-08
9.53537e-06
8.80212e-08
8.38025e-08
9.539e-06
1.00181e-05
3.12524e-08
1.00137e-05
1.3875e-07
1.00142e-05
-1.16372e-07
1.00157e-05
-7.62346e-08
9.98786e-06
-4.37753e-08
9.97178e-06
-1.11388e-07
9.98238e-06
-2.53396e-08
9.98482e-06
7.51993e-08
9.98036e-06
5.75384e-08
9.98467e-06
2.94285e-08
9.98756e-06
4.18251e-08
9.98224e-06
5.25005e-08
9.97752e-06
5.14567e-08
9.9785e-06
5.5231e-08
9.98172e-06
6.86369e-08
9.98374e-06
8.12998e-08
9.98514e-06
8.54875e-08
9.98814e-06
8.4902e-08
9.99271e-06
8.34507e-08
7.99991e-08
9.99651e-06
1.04967e-05
2.32374e-08
1.04931e-05
1.42299e-07
1.04901e-05
-1.13384e-07
1.0494e-05
-8.00894e-08
1.04697e-05
-1.95341e-08
1.04509e-05
-9.25967e-08
1.04606e-05
-3.50004e-08
1.04655e-05
7.03436e-08
1.04597e-05
6.33039e-08
1.04615e-05
2.76139e-08
1.04659e-05
3.7383e-08
1.04628e-05
5.56922e-08
1.04573e-05
5.68988e-08
1.04572e-05
5.53891e-08
1.0461e-05
6.47968e-08
1.04641e-05
7.81764e-08
1.04657e-05
8.39226e-08
1.04677e-05
8.28521e-08
1.04716e-05
7.95361e-08
7.58447e-08
1.04758e-05
1.09978e-05
1.54723e-08
1.09956e-05
1.44474e-07
1.09891e-05
-1.0692e-07
1.09945e-05
-8.54942e-08
1.09747e-05
3.30902e-10
1.09536e-05
-7.1522e-08
1.09613e-05
-4.26611e-08
1.09687e-05
6.29245e-08
1.09627e-05
6.93357e-08
1.09616e-05
2.86557e-08
1.09667e-05
3.22842e-08
1.0966e-05
5.64215e-08
1.09607e-05
6.22138e-08
1.09591e-05
5.69703e-08
1.09628e-05
6.10545e-08
1.0967e-05
7.40133e-08
1.09692e-05
8.16936e-08
1.09708e-05
8.12616e-08
1.09736e-05
7.67603e-08
7.1702e-08
1.09777e-05
1.15226e-05
8.22686e-09
1.15222e-05
1.4485e-07
1.15125e-05
-9.72077e-08
1.15186e-05
-9.15417e-08
1.15036e-05
1.53166e-08
1.14809e-05
-4.8883e-08
1.14857e-05
-4.74255e-08
1.14954e-05
5.32811e-08
1.14902e-05
7.44844e-08
1.14865e-05
3.24065e-08
1.1491e-05
2.77022e-08
1.14928e-05
5.46802e-08
1.14885e-05
6.64661e-08
1.14856e-05
5.98654e-08
1.14885e-05
5.81697e-08
1.14934e-05
6.9087e-08
1.14965e-05
7.85875e-08
1.14983e-05
7.95457e-08
1.15001e-05
7.49474e-08
6.8339e-08
1.15034e-05
1.20723e-05
1.74529e-09
1.2074e-05
1.43111e-07
1.20615e-05
-8.46591e-08
1.20673e-05
-9.73073e-08
1.20573e-05
2.52902e-08
1.20341e-05
-2.57018e-08
1.20353e-05
-4.85868e-08
1.20465e-05
4.2016e-08
1.20432e-05
7.77739e-08
1.20372e-05
3.8398e-08
1.20404e-05
2.45867e-08
1.20441e-05
5.09518e-08
1.20417e-05
6.88473e-08
1.2038e-05
6.35851e-08
1.20395e-05
5.67016e-08
1.20447e-05
6.38645e-08
1.20487e-05
7.4611e-08
1.20509e-05
7.73122e-08
1.20524e-05
7.34523e-08
6.62633e-08
1.20545e-05
1.26481e-05
-3.76672e-09
1.26521e-05
1.39083e-07
1.26374e-05
-6.98918e-08
1.26419e-05
-1.01833e-07
1.26368e-05
3.04036e-08
1.26142e-05
-3.10717e-09
1.26114e-05
-4.58514e-08
1.26234e-05
3.00604e-08
1.26227e-05
7.85225e-08
1.26153e-05
4.57847e-08
1.26162e-05
2.36278e-08
1.26212e-05
4.60016e-08
1.26211e-05
6.89569e-08
1.26173e-05
6.73327e-08
1.26172e-05
5.68119e-08
1.2622e-05
5.90593e-08
1.26268e-05
6.9837e-08
1.26296e-05
7.44836e-08
1.26314e-05
7.16428e-08
6.51708e-08
1.26325e-05
1.32513e-05
-8.14868e-09
1.32577e-05
1.32745e-07
1.32414e-05
-5.36816e-08
1.32439e-05
-1.04253e-07
1.32431e-05
3.12008e-08
1.32224e-05
1.75903e-08
1.32158e-05
-3.92703e-08
1.32273e-05
1.85308e-08
1.32294e-05
7.64489e-08
1.32216e-05
5.35547e-08
1.32202e-05
2.50386e-08
1.32254e-05
4.07895e-08
1.32275e-05
6.68485e-08
1.32247e-05
7.01982e-08
1.32232e-05
5.82499e-08
1.32269e-05
5.54003e-08
1.32323e-05
6.44577e-08
1.32356e-05
7.11064e-08
1.3238e-05
6.92729e-08
6.42247e-08
1.3239e-05
1.38833e-05
-1.13192e-08
1.38918e-05
1.24273e-07
1.3875e-05
-3.68815e-08
1.38747e-05
-1.03913e-07
1.38775e-05
2.84072e-08
1.38597e-05
3.53611e-08
1.38498e-05
-2.93769e-08
1.38597e-05
8.5937e-09
1.38645e-05
7.16718e-08
1.38575e-05
6.0605e-08
1.38539e-05
2.86214e-08
1.38584e-05
3.63017e-08
1.38623e-05
6.29272e-08
1.3861e-05
7.14444e-08
1.38588e-05
6.04566e-08
1.38609e-05
5.32905e-08
1.38664e-05
5.89987e-08
1.38704e-05
6.71091e-08
1.38732e-05
6.65085e-08
6.26823e-08
1.38747e-05
1.45456e-05
-1.3272e-08
1.45559e-05
1.14021e-07
1.45394e-05
-2.03856e-08
1.45359e-05
-1.00424e-07
1.45413e-05
2.29799e-08
1.45273e-05
4.93738e-08
1.45149e-05
-1.70229e-08
1.45223e-05
1.25786e-09
1.45292e-05
6.47158e-08
1.45239e-05
6.59263e-08
1.45187e-05
3.38644e-08
1.45217e-05
3.33027e-08
1.45268e-05
5.78143e-08
1.45275e-05
7.0758e-08
1.45253e-05
6.26649e-08
1.45259e-05
5.26669e-08
1.45307e-05
5.42298e-08
1.45353e-05
6.24271e-08
1.45383e-05
6.35769e-08
6.03031e-08
1.45406e-05
1.52397e-05
-1.40729e-08
1.52512e-05
1.02472e-07
1.52359e-05
-5.01017e-09
1.52292e-05
-9.3732e-08
1.52361e-05
1.5998e-08
1.52264e-05
5.91422e-08
1.52126e-05
-3.27197e-09
1.52167e-05
-2.80367e-09
1.5225e-05
5.63749e-08
1.52221e-05
6.88142e-08
1.5216e-05
4.00106e-08
1.52171e-05
3.21855e-08
1.52226e-05
5.23086e-08
1.52251e-05
6.82528e-08
1.52237e-05
6.40977e-08
1.52233e-05
5.30983e-08
1.52267e-05
5.07427e-08
1.52319e-05
5.73168e-08
1.5235e-05
6.04176e-08
5.74284e-08
1.52379e-05
1.59671e-05
-1.38511e-08
1.59794e-05
9.02112e-08
1.59658e-05
8.53102e-09
1.59562e-05
-8.41142e-08
1.59636e-05
8.59475e-09
1.59582e-05
6.45854e-08
1.59442e-05
1.06681e-08
1.59448e-05
-3.36427e-09
1.59536e-05
4.76094e-08
1.59533e-05
6.90899e-08
1.59472e-05
4.60975e-08
1.59465e-05
3.29009e-08
1.59515e-05
4.72413e-08
1.59555e-05
6.43358e-08
1.59553e-05
6.42411e-08
1.59544e-05
5.39762e-08
1.59565e-05
4.86602e-08
1.59614e-05
5.2394e-08
1.5965e-05
5.68191e-08
5.45085e-08
1.5968e-05
1.67295e-05
-1.27924e-08
1.67419e-05
7.78784e-08
1.67307e-05
1.96708e-08
1.67188e-05
-7.21354e-08
1.67255e-05
1.83125e-09
1.67241e-05
6.60312e-08
1.67111e-05
2.36668e-08
1.67085e-05
-7.38277e-10
1.67166e-05
3.945e-08
1.67187e-05
6.6952e-08
1.67136e-05
5.12497e-08
1.67114e-05
3.50703e-08
1.67154e-05
4.32561e-08
1.67202e-05
5.95588e-08
1.67215e-05
6.29624e-08
1.67208e-05
5.46601e-08
1.67218e-05
4.76756e-08
1.67259e-05
4.82988e-08
1.67299e-05
5.27668e-08
5.16777e-08
1.67327e-05
1.75287e-05
-1.11086e-08
1.75405e-05
6.60386e-08
1.7532e-05
2.81428e-08
1.75185e-05
-5.86141e-08
1.75238e-05
-3.43541e-09
1.75257e-05
6.41475e-08
1.75145e-05
3.48108e-08
1.75094e-05
4.34331e-09
1.75161e-05
3.27793e-08
1.75201e-05
6.29293e-08
1.75166e-05
5.4825e-08
1.75135e-05
3.80982e-08
1.75161e-05
4.06547e-08
1.75212e-05
5.45468e-08
1.75237e-05
6.0433e-08
1.75237e-05
5.46656e-08
1.75241e-05
4.7297e-08
1.7527e-05
4.53201e-08
1.75312e-05
4.85877e-08
4.87884e-08
1.75341e-05
1.83663e-05
-9.027e-09
1.83771e-05
5.51636e-08
1.83713e-05
3.39359e-08
1.83572e-05
-4.44766e-08
1.83604e-05
-6.63544e-09
1.83647e-05
5.9843e-08
1.83561e-05
4.34243e-08
1.83494e-05
1.10074e-08
1.83541e-05
2.81181e-08
1.83593e-05
5.77449e-08
1.83576e-05
5.65249e-08
1.83544e-05
4.12973e-08
1.83557e-05
3.93849e-08
1.83603e-05
4.98952e-08
1.83637e-05
5.70039e-08
1.83646e-05
5.37753e-08
1.83649e-05
4.70175e-08
1.83669e-05
4.33245e-08
1.83707e-05
4.47644e-08
4.57084e-08
1.83738e-05
1.92441e-05
-6.76216e-09
1.92537e-05
4.55919e-08
1.92504e-05
3.72571e-08
1.92365e-05
-3.05851e-08
1.92375e-05
-7.60949e-09
1.92432e-05
5.41391e-08
1.92374e-05
4.92189e-08
1.92301e-05
1.82606e-08