/*--------------------------------*- C++ -*----------------------------------*\
| =========                 |                                                 |
| \\      /  F ield         | OpenFOAM: The Open Source CFD Toolbox           |
|  \\    /   O peration     | Version:  2106                                  |
|   \\  /    A nd           | Website:  www.openfoam.com                      |
|    \\/     M anipulation  |                                                 |
\*---------------------------------------------------------------------------*/
FoamFile
{
    version     2.0;
    format      ascii;
    arch        "LSB;label=32;scalar=64";
    class       volScalarField;
    location    "0.235";
    object      p;
}
// * * * * * * * * * * * * * * * * * * * * * * * * * * * * * * * * * * * * * //

dimensions      [0 2 -2 0 0 0 0];

internalField   nonuniform List<scalar> 
9600
(
2.3929e-10
0.000997719
0.000889425
0.00123415
0.00102164
0.0011601
0.00216359
0.00311461
0.0018149
0.0021282
0.00353354
0.00399626
0.00435345
0.00528331
0.00567471
0.00667983
0.00949893
0.011423
0.0157048
0.0212774
1.64576e-06
0.000995158
0.000890968
0.00122996
0.00102357
0.00116423
0.0021632
0.00310385
0.00182466
0.00213244
0.00352693
0.00399818
0.0043493
0.00527799
0.00573271
0.00666836
0.00955936
0.0113705
0.0158477
0.0208221
3.62518e-06
0.000991887
0.000892757
0.00122551
0.00102657
0.00116928
0.00216128
0.00308902
0.00183885
0.00213345
0.00352001
0.00400246
0.004339
0.0052777
0.00577117
0.00665286
0.00957069
0.0113178
0.0159035
0.0201874
5.8104e-06
0.000988478
0.000894621
0.00122183
0.00102917
0.00117458
0.00215933
0.00307088
0.00185276
0.00213277
0.00351628
0.00400704
0.0043258
0.00527926
0.00580615
0.00663438
0.00958937
0.0112677
0.0158669
0.0196347
8.54444e-06
0.000984816
0.000896656
0.00121853
0.00103108
0.00118042
0.00215751
0.0030488
0.00186739
0.00213172
0.00351439
0.00401076
0.00431177
0.00528045
0.00584293
0.00661514
0.00961115
0.0112094
0.0158047
0.0191346
1.19439e-05
0.000980745
0.000898831
0.00121541
0.00103242
0.00118654
0.00215558
0.00302415
0.00188342
0.00213026
0.0035134
0.00401401
0.0042984
0.00528159
0.00588078
0.00659588
0.00962772
0.0111486
0.0157095
0.0186625
1.59183e-05
0.000976202
0.000901137
0.00121231
0.00103333
0.00119266
0.00215365
0.0029983
0.00190021
0.00212855
0.00351311
0.00401741
0.00428635
0.00528225
0.0059198
0.00657634
0.00963712
0.0110889
0.0155756
0.0182105
2.03178e-05
0.000971201
0.000903599
0.00120908
0.001034
0.00119867
0.00215183
0.00297177
0.00191728
0.00212693
0.0035133
0.00402111
0.00427556
0.00528222
0.00595969
0.00655666
0.00963829
0.0110312
0.0154001
0.0177749
2.50217e-05
0.000965792
0.000906238
0.00120561
0.00103465
0.00120451
0.00215019
0.00294477
0.0019345
0.00212541
0.00351366
0.004025
0.00426595
0.00528137
0.00600496
0.00653756
0.00962921
0.0109755
0.0151834
0.0173521
2.99602e-05
0.000960017
0.000909072
0.00120185
0.00103541
0.00121013
0.00214877
0.00291736
0.00195177
0.00212384
0.00351391
0.00402899
0.00425747
0.00527947
0.00604338
0.00651992
0.00960563
0.010921
0.0149283
0.0169374
3.51053e-05
0.000953898
0.000912113
0.00119776
0.00103636
0.0012155
0.00214757
0.00288953
0.00196902
0.00212208
0.00351383
0.00403309
0.00424982
0.00527672
0.00607794
0.00650416
0.00956683
0.0108667
0.0146389
0.0165248
4.04553e-05
0.000947433
0.000915376
0.00119329
0.00103754
0.00122057
0.00214656
0.00286127
0.00198614
0.00212003
0.00351321
0.00403732
0.00424264
0.0052735
0.00610795
0.00649032
0.00951217
0.0108108
0.0143201
0.0161082
4.60209e-05
0.000940602
0.000918872
0.00118842
0.00103896
0.00122532
0.00214572
0.00283257
0.002003
0.00211769
0.0035118
0.00404178
0.00423552
0.00527003
0.00613258
0.00647832
0.00944159
0.0107502
0.0139774
0.0156829
5.18185e-05
0.000933372
0.000922612
0.00118311
0.00104062
0.00122973
0.00214499
0.0028035
0.00201945
0.00211512
0.00350934
0.00404672
0.00422789
0.00526642
0.00615096
0.00646758
0.00935579
0.0106813
0.0136165
0.0152464
5.78687e-05
0.000925703
0.000926602
0.00117732
0.00104254
0.00123378
0.00214431
0.0027741
0.00203536
0.00211243
0.00350552
0.00405248
0.00421927
0.00526266
0.00616254
0.00645682
0.00925614
0.0106005
0.0132424
0.0147981
6.41955e-05
0.000917546
0.00093085
0.00117105
0.00104471
0.00123747
0.00214358
0.00274448
0.00205052
0.00210985
0.00349995
0.00405931
0.00420938
0.00525855
0.0061673
0.00644411
0.00914443
0.0105052
0.012859
0.0143379
7.08254e-05
0.000908852
0.000935355
0.00116429
0.0010471
0.00124082
0.00214273
0.00271477
0.00206462
0.00210767
0.0034922
0.00406738
0.00419816
0.00525357
0.0061659
0.00642693
0.00902206
0.0103942
0.0124689
0.0138673
7.77888e-05
0.000899564
0.000940114
0.00115702
0.0010497
0.00124388
0.00214164
0.00268516
0.00207729
0.00210616
0.00348193
0.0040768
0.00418569
0.00524669
0.00615961
0.00640304
0.00888909
0.0102673
0.012075
0.0133869
8.51191e-05
0.000889625
0.000945115
0.00114928
0.00105243
0.00124669
0.00214012
0.00265595
0.00208818
0.00210553
0.00346883
0.00408751
0.00417221
0.00523663
0.00614947
0.00637084
0.00874483
0.0101255
0.0116793
0.0128983
9.28498e-05
0.000878984
0.000950325
0.00114108
0.00105522
0.00124935
0.00213793
0.00262743
0.00209692
0.0021059
0.00345278
0.0040991
0.00415831
0.00522221
0.0061358
0.00632927
0.00858868
0.00997017
0.0112834
0.0124027
0.000101018
0.000867587
0.000955695
0.00113249
0.00105798
0.00125199
0.00213479
0.00259989
0.00210321
0.00210734
0.00343387
0.00411091
0.00414469
0.005202
0.00611839
0.00627833
0.00841946
0.00980258
0.0108894
0.0119003
0.000109668
0.000855377
0.000961153
0.00112355
0.00106057
0.0012548
0.00213043
0.00257364
0.00210671
0.00210979
0.00341237
0.00412205
0.00413213
0.0051748
0.00609636
0.00621899
0.00823607
0.00962351
0.0105
0.0113915
0.00011884
0.000842315
0.000966598
0.00111439
0.0010628
0.00125803
0.00212457
0.00254882
0.00210733
0.00211292
0.00338871
0.00413161
0.00412123
0.00513994
0.00606803
0.00615215
0.00803837
0.00943291
0.0101184
0.0108768
0.00012857
0.000828374
0.000971895
0.00110515
0.00106439
0.00126187
0.00211702
0.00252542
0.00210511
0.00211612
0.00336367
0.00413856
0.00411202
0.00509732
0.0060319
0.00607857
0.00782639
0.00922976
0.00974768
0.0103584
0.000138894
0.000813542
0.000976871
0.00109601
0.00106511
0.00126652
0.00210768
0.00250342
0.00210025
0.00211852
0.00333806
0.00414206
0.00410398
0.00504741
0.00598695
0.0059986
0.00760049
0.00901282
0.00939126
0.00983921
0.000149841
0.000797837
0.000981309
0.00108714
0.00106471
0.00127209
0.00209654
0.00248261
0.00209323
0.00211907
0.00331242
0.00414175
0.00409609
0.00499036
0.0059323
0.00591245
0.00736185
0.00878077
0.00905119
0.00932371
0.00016143
0.000781305
0.000984947
0.00107875
0.00106295
0.00127864
0.00208376
0.00246252
0.00208477
0.0021169
0.00328681
0.00413758
0.00408711
0.00492606
0.00586711
0.00582051
0.00711255
0.00853221
0.00872799
0.00881739
0.000173677
0.000764042
0.000987449
0.00107106
0.00105965
0.00128612
0.00206961
0.00244236
0.00207574
0.00211151
0.00326064
0.00412994
0.00407616
0.00485443
0.00579055
0.00572283
0.00685469
0.008266
0.00842064
0.00832647
0.000186563
0.000746189
0.000988475
0.00106417
0.00105472
0.00129438
0.00205438
0.0024214
0.00206689
0.00210268
0.00323287
0.00411935
0.00406272
0.00477516
0.00570196
0.0056186
0.00658159
0.00798176
0.00812749
0.00785781
0.000200054
0.000727922
0.000987679
0.00105817
0.00104822
0.00130303
0.00203877
0.00239888
0.00205832
0.00209054
0.00320223
0.00410597
0.00404659
0.00468758
0.0056006
0.00550699
0.00631471
0.00767969
0.00784537
0.00741858
0.000214082
0.000709503
0.000984705
0.00105302
0.00104028
0.00131153
0.00202366
0.0023741
0.00204965
0.00207596
0.00316737
0.00408924
0.00402821
0.00459124
0.0054857
0.0053963
0.00604816
0.00736029
0.00756918
0.00701486
0.000228544
0.000691191
0.000979263
0.00104857
0.0010312
0.00131918
0.00200973
0.00234685
0.00204007
0.00206007
0.00312752
0.00406776
0.00400777
0.00448671
0.00535673
0.00528097
0.00578422
0.00702514
0.00729266
0.00665039
0.000243299
0.000673292
0.00097112
0.00104453
0.00102141
0.0013252
0.0019974
0.00231736
0.00202826
0.0020433
0.0030828
0.00403985
0.00398486
0.00437567
0.00521326
0.00515978
0.00552573
0.00667768
0.00700955
0.00632477
0.000258171
0.00065634
0.000960147
0.00104052
0.0010114
0.0013289
0.00198671
0.00228576
0.00201278
0.00202539
0.00303386
0.0040043
0.00395869
0.0042597
0.00505545
0.00503123
0.00527446
0.00632268
0.00671504
0.00603283
0.000272961
0.000640455
0.000946407
0.00103586
0.00100177
0.00132975
0.00197755
0.0022363
0.00199228
0.00200556
0.0029817
0.00396054
0.00392776
0.00413934
0.00488456
0.00489429
0.00503106
0.00596534
0.00640655
0.00576568
0.0002874
0.000625952
0.000930183
0.00102964
0.000992973
0.00132761
0.00196948
0.00220277
0.0019662
0.00198244
0.00292701
0.0039084
0.00389061
0.00401487
0.00470178
0.00474852
0.00479608
0.00561005
0.00608376
0.00551225
0.000301223
0.000613031
0.000911955
0.00102098
0.000985072
0.00132271
0.00196142
0.00217468
0.00193487
0.00195403
0.00286958
0.0038486
0.0038464
0.0038868
0.00450785
0.00459338
0.00456973
0.00525987
0.00574872
0.00526153
0.000314179
0.000601802
0.000892391
0.00100899
0.000977934
0.00131565
0.00195186
0.00214993
0.00189978
0.00191791
0.00280838
0.00378305
0.00379478
0.00375496
0.00430337
0.0044282
0.00435241
0.00491802
0.00540533
0.00500375
0.000326021
0.000592258
0.000872317
0.00099298
0.000971088
0.00130729
0.0019395
0.00212791
0.00186287
0.00187326
0.00274148
0.00371261
0.00373672
0.00361883
0.00408857
0.00425267
0.00414472
0.00458832
0.0050586
0.00473301
0.000336538
0.000584219
0.000852712
0.000972665
0.000963351
0.00129855
0.0019238
0.00210718
0.00182578
0.00182059
0.00266587
0.00363638
0.00367467
0.00347912
0.00386343
0.00406638
0.00394644
0.00427272
0.00471303
0.00445165
0.000345533
0.000577788
0.000834512
0.000948116
0.000953095
0.00129015
0.00190485
0.00208553
0.00178978
0.00176109
0.00257907
0.00355278
0.00361055
0.00333878
0.00362787
0.0038664
0.00375782
0.00397344
0.00437014
0.00416633
0.000352891
0.000571822
0.000818483
0.00091995
0.00093788
0.00128225
0.00188337
0.00206023
0.00175495
0.00169711
0.00248037
0.00345885
0.00354399
0.00320219
0.00338392
0.00364789
0.00357699
0.00369607
0.0040308
0.00388061
0.000358576
0.000565789
0.000805178
0.000889205
0.000916078
0.00127467
0.00185965
0.00202929
0.00171985
0.00163188
0.00237087
0.00335045
0.00347284
0.0030736
0.00313728
0.00340818
0.00339541
0.00344477
0.00370007
0.00359456
0.000362614
0.000559109
0.000794867
0.000857353
0.000886441
0.00126635
0.00183811
0.00199277
0.00168132
0.00156777
0.00225323
0.00322447
0.00339325
0.00295531
0.00289596
0.00314895
0.00320115
0.00321643
0.00338641
0.00330806
0.000365122
0.000551147
0.000787394
0.000826194
0.000847996
0.00125407
0.00182071
0.00195153
0.0016357
0.00150431
0.00213189
0.00308102
0.00329924
0.00284577
0.0026688
0.00287651
0.00298585
0.00300207
0.00309464
0.00302217
0.000366292
0.000541293
0.000782133
0.000797486
0.000800744
0.00123452
0.00180765
0.00190879
0.00158006
0.00143897
0.00201233
0.00292326
0.00318499
0.00273972
0.00246088
0.00260255
0.00274944
0.00278787
0.00282421
0.00273659
0.000366387
0.000528959
0.000778052
0.000771904
0.000745609
0.00120359
0.00179784
0.00186923
0.00151377
0.00136715
0.00189737
0.00275793
0.003048
0.00262802
0.00227175
0.00234002
0.00249947
0.00256414
0.00256869
0.00245114
0.000365689
0.000513764
0.000773764
0.000751661
0.000682492
0.00115777
0.0017892
0.00183732
0.00143831
0.00128227
0.00178549
0.00259442
0.0028905
0.00250047
0.00209728
0.0020962
0.00224716
0.00232932
0.00232064
0.00216817
0.000364359
0.000495451
0.00076756
0.000740484
0.000617694
0.00109457
0.00177707
0.00181621
0.00135796
0.0011792
0.00167176
0.0024398
0.00272126
0.0023514
0.0019253
0.00187146
0.00200555
0.00208793
0.00207585
0.00189271
0.000362994
0.000473941
0.000757516
0.00073651
0.000554125
0.00101334
0.00175495
0.0018063
0.00128045
0.00105694
0.00154703
0.0022949
0.00255375
0.0021838
0.00174099
0.00165939
0.00178511
0.00185159
0.00182989
0.00163023
0.000361549
0.000449559
0.000741875
0.000738859
0.000495517
0.00091481
0.0017163
0.00180598
0.00121437
0.000918024
0.00140158
0.00215569
0.00239882
0.00200703
0.00153848
0.00144285
0.00158385
0.00163825
0.00158308
0.0013774
0.000360039
0.000422878
0.000719039
0.000745664
0.000445666
0.00080077
0.00165518
0.00181133
0.00116696
0.000768522
0.00122854
0.00201292
0.00226125
0.00183572
0.00132212
0.00120521
0.001386
0.00146039
0.00135225
0.00112672
0.000358347
0.000394644
0.000687758
0.000754208
0.000407632
0.000676001
0.00156726
0.00181542
0.00114189
0.000618789
0.00102627
0.00185338
0.00213903
0.00168424
0.00110129
0.00094404
0.00116571
0.00130591
0.00116326
0.000882978
0.00035613
0.000365755
0.000647347
0.000761165
0.000383827
0.00054683
0.00144984
0.00180908
0.00113901
0.000482297
0.000798919
0.00166356
0.00202419
0.00156177
0.000892056
0.000666588
0.000907847
0.00114606
0.00102232
0.000671005
0.000352835
0.000337436
0.000598019
0.000762475
0.00037497
0.000420637
0.00130331
0.0017827
0.00115568
0.00037112
0.000554523
0.00143464
0.00190225
0.00146893
0.000711815
0.000383883
0.000612705
0.00094756
0.00090716
0.000516741
0.000347772
0.000310417
0.000540597
0.000754427
0.000379331
0.000304339
0.00113054
0.00172721
0.00118435
0.000293289
0.000307216
0.00116514
0.00175505
0.0013993
0.000573797
0.00011345
0.000289693
0.000696311
0.000780236
0.000414677
0.000340053
0.00028525
0.000477166
0.000733747
0.000393555
0.000203269
0.000936703
0.00163524
0.00121349
0.00025243
7.44156e-05
0.000861193
0.00156569
0.00133762
0.000483589
-0.00012432
-4.77301e-05
0.000394979
0.000608603
0.00033474
0.000328937
0.000262534
0.000410357
0.000697969
0.000412966
0.000121893
0.000731192
0.00150243
0.00122996
0.00024741
-0.000126967
0.000534707
0.00132404
0.00126112
0.000436115
-0.000310654
-0.000379847
5.40491e-05
0.000380712
0.0002365
0.000313744
0.000241583
0.000343432
0.000646133
0.000430863
6.41101e-05
0.000526046
0.00132919
0.0012207
0.000271733
-0.000284915
0.000204057
0.00103054
0.00114732
0.000415687
-0.000433143
-0.000682012
-0.000312836
9.89013e-05
9.22976e-05
0.000293864
0.000221947
0.000278755
0.000578612
0.000440371
2.90332e-05
0.000332687
0.0011199
0.00117444
0.000311319
-0.000393328
-0.000109359
0.000694771
0.000980156
0.000395159
-0.000494502
-0.000927749
-0.000684585
-0.000229252
-0.000106467
0.000269099
0.000202552
0.000218334
0.000497213
0.000435331
1.27202e-05
0.000159619
0.000883668
0.00108363
0.000348431
-0.000452825
-0.00038566
0.000333063
0.000753213
0.000346844
-0.000511744
-0.00109812
-0.00103121
-0.000592773
-0.000358481
0.000239496
0.000181912
0.000163374
0.000405644
0.000411367
8.92046e-06
1.27348e-05
0.000634408
0.000946372
0.000365957
-0.000470355
-0.000610824
-3.11789e-05
0.000471258
0.000251897
-0.000514258
-0.00119593
-0.00132045
-0.000969163
-0.000659145
0.000205324
0.000158618
0.000114002
0.000308814
0.000366681
9.0188e-06
-0.000105611
0.000387503
0.000766412
0.000349985
-0.000461402
-0.000779015
-0.000373099
0.00014702
9.97107e-05
-0.000531866
-0.0012403
-0.00153227
-0.00132473
-0.000997889
0.00016712
0.00013146
6.94839e-05
0.000211543
0.000302047
3.73534e-06
-0.000196208
0.000155934
0.000552045
0.000291635
-0.000445905
-0.00089303
-0.000673174
-0.00019844
-0.000110079
-0.000585593
-0.00126009
-0.00167097
-0.00162733
-0.00135011
0.00012556
9.9605e-05
2.83776e-05
0.000117605
0.000219842
-1.40862e-05
-0.000263565
-5.14622e-05
0.000316566
0.000188842
-0.000442467
-0.0009624
-0.000920294
-0.000538792
-0.000366981
-0.000687856
-0.00128412
-0.00175597
-0.00186094
-0.00168275
8.12925e-05
6.26433e-05
-1.12679e-05
2.95155e-05
0.000124468
-4.89638e-05
-0.000316043
-0.000230093
7.57318e-05
4.58426e-05
-0.000464994
-0.00100408
-0.00111304
-0.000852044
-0.00065332
-0.000841132
-0.00133323
-0.00181336
-0.00203045
-0.00196919
3.50077e-05
2.07471e-05
-5.15995e-05
-5.18616e-05
2.17064e-05
-0.000102375
-0.000362868
-0.000379946
-0.000156212
-0.000128967
-0.000521635
-0.00103691
-0.00125742
-0.00112428
-0.00094632
-0.00103704
-0.00141913
-0.00186784
-0.00215247
-0.00219889
-1.27266e-05
-2.55564e-05
-9.43417e-05
-0.000126892
-8.30388e-05
-0.000172768
-0.000411974
-0.000504118
-0.000369287
-0.000323118
-0.000613251
-0.00107629
-0.00136497
-0.00135056
-0.00122576
-0.00126092
-0.00154372
-0.00193671
-0.00224786
-0.00237756
-6.15415e-05
-7.54301e-05
-0.000140465
-0.00019668
-0.000185689
-0.000256698
-0.000468567
-0.000608655
-0.000558434
-0.000522979
-0.000734665
-0.00113255
-0.00145111
-0.00153418
-0.00147807
-0.00149495
-0.00169998
-0.00202873
-0.00233552
-0.00251844
-0.000111097
-0.000127857
-0.000190209
-0.000262677
-0.00028367
-0.00034955
-0.00053489
-0.000701031
-0.00072312
-0.000717062
-0.000877589
-0.00121024
-0.00152968
-0.00168268
-0.00169678
-0.00172299
-0.0018764
-0.00214459
-0.00242799
-0.0026365
-0.000161072
-0.000181817
-0.000243139
-0.000326286
-0.000375737
-0.000446508
-0.000610634
-0.000787505
-0.000865898
-0.000897617
-0.00103177
-0.00130827
-0.00161027
-0.00180629
-0.00188228
-0.00193391
-0.00206016
-0.00227895
-0.00253095
-0.0027447
-0.00021111
-0.000236282
-0.000298325
-0.000388549
-0.000461636
-0.000543371
-0.000693548
-0.000872105
-0.000990537
-0.00106079
-0.0011873
-0.0014214
-0.00169794
-0.00191507
-0.00203903
-0.00212192
-0.00223993
-0.00242368
-0.00264442
-0.00285092
-0.000260728
-0.000290325
-0.000354623
-0.000449858
-0.000541577
-0.000637008
-0.000780357
-0.000956586
-0.00110133
-0.00120586
-0.0013367
-0.00154275
-0.00179342
-0.00201629
-0.00217291
-0.00228597
-0.00240777
-0.00257035
-0.00276479
-0.0029583
-0.000309314
-0.000343072
-0.000410695
-0.000509944
-0.000615875
-0.000725352
-0.00086761
-0.00104077
-0.00120177
-0.00133392
-0.00147519
-0.00166538
-0.00189418
-0.00211391
-0.00229
-0.00242777
-0.00255929
-0.00271173
-0.00288691
-0.00306648
-0.000356105
-0.000393605
-0.000465124
-0.000568034
-0.000684665
-0.000807074
-0.000952151
-0.00112325
-0.00129381
-0.00144647
-0.00160005
-0.00178331
-0.00199601
-0.00220897
-0.00239479
-0.00255023
-0.00269288
-0.00284253
-0.00300539
-0.00317295
-0.000400171
-0.000440941
-0.000516483
-0.000622977
-0.000747701
-0.000881155
-0.00103124
-0.00120202
-0.00137812
-0.00154506
-0.00171016
-0.00189195
-0.00209418
-0.00230008
-0.00248962
-0.00265637
-0.00280868
-0.00295951
-0.00311559
-0.00327418
-0.00044041
-0.000483976
-0.000563351
-0.000673354
-0.00080429
-0.000946668
-0.00110244
-0.00127449
-0.00145424
-0.00163075
-0.00180528
-0.00198836
-0.00218439
-0.00238442
-0.00257462
-0.00274807
-0.00290773
-0.00306124
-0.0032142
-0.00336678
-0.000475585
-0.000521482
-0.000604245
-0.000717504
-0.000853257
-0.0010026
-0.0011637
-0.00133775
-0.00152007
-0.00170299
-0.00188481
-0.0020705
-0.00226325
-0.00245863
-0.00264786
-0.00282489
-0.00298969
-0.0031463
-0.00329862
-0.00344777
-0.000504494
-0.00055221
-0.000637703
-0.000753661
-0.000892902
-0.00104727
-0.00121276
-0.00138888
-0.00157295
-0.00175988
-0.00194694
-0.00213545
-0.00232693
-0.00251922
-0.00270699
-0.00288551
-0.00305339
-0.00321225
-0.0033645
-0.00351155
-0.000527208
-0.000577981
-0.000666756
-0.000785825
-0.000928264
-0.00108663
-0.00125608
-0.00143479
-0.00162064
-0.00181012
-0.00200057
-0.00219163
-0.00238353
-0.00257464
-0.00276142
-0.00294033
-0.00310976
-0.00327017
-0.003423
-0.0035694
0.0305777
0.0203238
0.00873814
0.000964798
-0.00197444
-0.00216293
-0.00198032
-0.0021598
-0.00265811
-0.00330742
-0.0038607
-0.00417151
-0.00444927
-0.00495278
-0.00548804
-0.00582386
-0.00610665
-0.00645761
-0.00686455
-0.00733147
-0.00776853
-0.00810432
-0.00844227
-0.00887342
-0.00932433
-0.00969054
-0.0100112
-0.0103976
-0.0108312
-0.0112061
-0.0115353
-0.011906
-0.0122927
-0.01263
-0.0129537
-0.0133041
-0.01365
-0.0139815
-0.0143232
-0.0146718
-0.01502
-0.015377
-0.0157397
-0.0161029
-0.0164777
-0.0168669
-0.0172597
-0.0176555
-0.018063
-0.0184825
-0.0189092
-0.0193435
-0.019788
-0.020243
-0.0207076
-0.0211819
-0.0216664
-0.0221612
-0.0226663
-0.023182
-0.0237081
-0.0242452
-0.0247931
-0.0253524
-0.0259227
-0.0265049
-0.027098
-0.0277034
-0.0283197
-0.0289489
-0.0295888
-0.030242
-0.0309063
-0.0315838
-0.0322736
-0.0329759
-0.0336921
-0.0344197
-0.0351635
-0.0359173
-0.0366891
-0.037471
-0.0382702
-0.0390828
-0.0399088
-0.0407541
-0.0416081
-0.0424853
-0.0433712
-0.044277
-0.0451993
-0.0461321
-0.0470903
-0.0480535
-0.0490404
-0.0500373
-0.0510397
-0.0520658
-0.0529819
-0.0538965
0.0289285
0.0201379
0.00882812
0.00109181
-0.00189328
-0.0021205
-0.00195361
-0.00214167
-0.00264506
-0.0032977
-0.00385322
-0.00416493
-0.00444279
-0.00494708
-0.00548349
-0.00581983
-0.00610288
-0.00645418
-0.00686137
-0.00732867
-0.00776618
-0.00810215
-0.00844012
-0.00887144
-0.00932267
-0.00968909
-0.0100098
-0.0103963
-0.0108302
-0.0112052
-0.0115345
-0.0119052
-0.0122921
-0.0126296
-0.0129532
-0.0133037
-0.0136498
-0.0139813
-0.014323
-0.0146717
-0.0150198
-0.0153769
-0.0157396
-0.0161029
-0.0164776
-0.0168669
-0.0172597
-0.0176555
-0.0180629
-0.0184824
-0.0189092
-0.0193435
-0.019788
-0.020243
-0.0207076
-0.0211819
-0.0216664
-0.0221612
-0.0226663
-0.023182
-0.0237081
-0.0242453
-0.0247931
-0.0253524
-0.0259227
-0.0265049
-0.027098
-0.0277034
-0.0283197
-0.0289489
-0.0295888
-0.030242
-0.0309063
-0.0315838
-0.0322736
-0.0329759
-0.0336921
-0.0344197
-0.0351635
-0.0359173
-0.0366891
-0.037471
-0.0382702
-0.0390828
-0.0399088
-0.0407541
-0.0416081
-0.0424853
-0.0433712
-0.044277
-0.0451993
-0.0461321
-0.0470903
-0.0480535
-0.0490404
-0.0500373
-0.0510397
-0.0520658
-0.0529819
-0.0538965
0.0276555
0.0200493
0.00904933
0.00133957
-0.0017566
-0.00206808
-0.00192744
-0.00212166
-0.00262871
-0.00328442
-0.00384296
-0.00415725
-0.00443656
-0.00494166
-0.00547868
-0.00581538
-0.00609898
-0.00645089
-0.00685835
-0.00732597
-0.00776389
-0.00810003
-0.00843809
-0.00886963
-0.00932112
-0.00968766
-0.0100084
-0.010395
-0.0108291
-0.0112043
-0.0115336
-0.0119044
-0.0122915
-0.012629
-0.0129527
-0.0133033
-0.0136494
-0.013981
-0.0143227
-0.0146715
-0.0150197
-0.0153767
-0.0157395
-0.0161028
-0.0164776
-0.0168668
-0.0172596
-0.0176555
-0.0180629
-0.0184824
-0.0189092
-0.0193435
-0.019788
-0.020243
-0.0207076
-0.0211819
-0.0216664
-0.0221612
-0.0226663
-0.023182
-0.0237081
-0.0242453
-0.0247931
-0.0253524
-0.0259227
-0.0265049
-0.027098
-0.0277034
-0.0283197
-0.0289489
-0.0295888
-0.030242
-0.0309063
-0.0315838
-0.0322736
-0.0329759
-0.0336921
-0.0344197
-0.0351635
-0.0359173
-0.0366891
-0.037471
-0.0382702
-0.0390828
-0.0399088
-0.0407541
-0.0416081
-0.0424853
-0.0433712
-0.044277
-0.0451993
-0.0461321
-0.0470903
-0.0480535
-0.0490404
-0.0500373
-0.0510397
-0.0520658
-0.0529819
-0.0538965
0.0264742
0.0199162
0.00930136
0.0016389
-0.00157906
-0.00199961
-0.00189158
-0.00209259
-0.00260491
-0.00326416
-0.00382615
-0.00414563
-0.00442911
-0.00493533
-0.00547195
-0.00580894
-0.00609392
-0.006447
-0.00685467
-0.0073223
-0.0077606
-0.00809729
-0.00843573
-0.00886744
-0.00931901
-0.00968569
-0.0100065
-0.0103933
-0.0108276
-0.011203
-0.0115323
-0.0119033
-0.0122906
-0.0126282
-0.012952
-0.0133027
-0.013649
-0.0139806
-0.0143224
-0.0146712
-0.0150194
-0.0153765
-0.0157393
-0.0161026
-0.0164774
-0.0168667
-0.0172596
-0.0176554
-0.0180629
-0.0184824
-0.0189091
-0.0193434
-0.019788
-0.020243
-0.0207076
-0.0211819
-0.0216664
-0.0221612
-0.0226663
-0.023182
-0.0237081
-0.0242453
-0.0247931
-0.0253524
-0.0259227
-0.0265049
-0.027098
-0.0277034
-0.0283197
-0.0289489
-0.0295888
-0.030242
-0.0309063
-0.0315838
-0.0322736
-0.0329759
-0.0336921
-0.0344197
-0.0351635
-0.0359173
-0.0366891
-0.037471
-0.0382702
-0.0390828
-0.0399088
-0.0407541
-0.0416081
-0.0424853
-0.0433712
-0.044277
-0.0451993
-0.0461321
-0.0470903
-0.0480535
-0.0490404
-0.0500373
-0.0510397
-0.0520658
-0.052982
-0.0538967
0.0252844
0.0197006
0.00954717
0.00195234
-0.00138687
-0.00192429
-0.00185129
-0.00205758
-0.0025747
-0.00323662
-0.00380151
-0.0041285
-0.00441932
-0.00492711
-0.00546218
-0.00579953
-0.0060871
-0.00644228
-0.00685013
-0.00731704
-0.00775545
-0.00809333
-0.00843276
-0.00886445
-0.00931573
-0.00968265
-0.010004
-0.0103909
-0.0108252
-0.0112007
-0.0115303
-0.0119016
-0.012289
-0.0126268
-0.0129507
-0.0133017
-0.013648
-0.0139798
-0.0143217
-0.0146707
-0.0150189
-0.0153761
-0.015739
-0.0161024
-0.0164772
-0.0168665
-0.0172594
-0.0176553
-0.0180628
-0.0184823
-0.0189091
-0.0193434
-0.019788
-0.020243
-0.0207076
-0.0211819
-0.0216664
-0.0221612
-0.0226663
-0.023182
-0.0237081
-0.0242453
-0.0247931
-0.0253524
-0.0259227
-0.0265049
-0.027098
-0.0277034
-0.0283197
-0.0289489
-0.0295888
-0.030242
-0.0309063
-0.0315838
-0.0322736
-0.0329759
-0.0336921
-0.0344197
-0.0351635
-0.0359173
-0.0366891
-0.037471
-0.0382702
-0.0390828
-0.0399088
-0.0407541
-0.0416081
-0.0424853
-0.0433712
-0.044277
-0.0451993
-0.0461321
-0.0470903
-0.0480535
-0.0490404
-0.0500373
-0.0510397
-0.0520659
-0.0529822
-0.0538969
0.0240932
0.0194117
0.0097865
0.00227536
-0.00118511
-0.00184561
-0.00181117
-0.00202132
-0.00254162
-0.00320492
-0.00377172
-0.00410723
-0.00440725
-0.00491666
-0.00544924
-0.00578718
-0.00607848
-0.00643675
-0.00684483
-0.00731011
-0.00774814
-0.0080879
-0.00842905
-0.00886046
-0.00931089
-0.0096782
-0.0100005
-0.0103876
-0.0108216
-0.0111971
-0.0115273
-0.0118988
-0.0122864
-0.0126243
-0.0129486
-0.0132999
-0.0136465
-0.0139785
-0.0143207
-0.0146697
-0.0150181
-0.0153754
-0.0157384
-0.0161019
-0.0164768
-0.0168662
-0.0172591
-0.017655
-0.0180626
-0.0184822
-0.018909
-0.0193433
-0.0197879
-0.0202429
-0.0207075
-0.0211819
-0.0216663
-0.0221612
-0.0226663
-0.023182
-0.0237081
-0.0242453
-0.0247931
-0.0253524
-0.0259227
-0.0265049
-0.027098
-0.0277034
-0.0283197
-0.0289489
-0.0295888
-0.030242
-0.0309063
-0.0315838
-0.0322736
-0.0329759
-0.0336921
-0.0344197
-0.0351635
-0.0359173
-0.0366891
-0.037471
-0.0382702
-0.0390828
-0.0399088
-0.0407541
-0.0416081
-0.0424853
-0.0433712
-0.044277
-0.0451993
-0.0461321
-0.0470903
-0.0480535
-0.0490404
-0.0500373
-0.0510397
-0.052066
-0.0529825
-0.0538972
0.0229187
0.0190616
0.0100185
0.00260706
-0.000973907
-0.00176379
-0.00177253
-0.00198549
-0.00250705
-0.00317093
-0.00373928
-0.00408364
-0.00439352
-0.00490435
-0.00543389
-0.00577261
-0.00606849
-0.00643062
-0.00683899
-0.0073019
-0.00773901
-0.00808112
-0.00842458
-0.00885543
-0.00930442
-0.00967225
-0.00999606
-0.0103833
-0.0108165
-0.0111921
-0.0115231
-0.0118949
-0.0122825
-0.0126208
-0.0129456
-0.0132971
-0.0136441
-0.0139764
-0.014319
-0.0146683
-0.0150168
-0.0153742
-0.0157374
-0.0161011
-0.0164762
-0.0168656
-0.0172586
-0.0176546
-0.0180623
-0.0184819
-0.0189087
-0.0193431
-0.0197877
-0.0202428
-0.0207075
-0.0211818
-0.0216663
-0.0221612
-0.0226663
-0.0231819
-0.0237081
-0.0242452
-0.0247931
-0.0253524
-0.0259227
-0.0265049
-0.027098
-0.0277034
-0.0283197
-0.0289489
-0.0295888
-0.030242
-0.0309063
-0.0315838
-0.0322736
-0.0329759
-0.0336921
-0.0344197
-0.0351635
-0.0359173
-0.0366891
-0.037471
-0.0382702
-0.0390828
-0.0399088
-0.0407541
-0.0416081
-0.0424853
-0.0433712
-0.044277
-0.0451993
-0.0461321
-0.0470903
-0.0480535
-0.0490404
-0.0500373
-0.0510398
-0.0520661
-0.0529829
-0.0538975
0.0217761
0.0186545
0.0102356
0.00294417
-0.000753355
-0.0016781
-0.00173532
-0.00195044
-0.00247125
-0.00313517
-0.00370509
-0.00405845
-0.00437853
-0.00489079
-0.00541698
-0.00575658
-0.00605751
-0.00642399
-0.00683274
-0.00729286
-0.00772869
-0.00807337
-0.00841946
-0.00884952
-0.0092966
-0.009665
-0.00999071
-0.010378
-0.0108101
-0.0111858
-0.0115178
-0.0118899
-0.0122773
-0.0126161
-0.0129415
-0.0132935
-0.0136407
-0.0139736
-0.0143166
-0.0146663
-0.015015
-0.0153726
-0.015736
-0.0161
-0.0164753
-0.0168648
-0.0172579
-0.017654
-0.0180618
-0.0184815
-0.0189084
-0.0193428
-0.0197875
-0.0202427
-0.0207073
-0.0211817
-0.0216662
-0.0221611
-0.0226662
-0.0231819
-0.0237081
-0.0242452
-0.0247931
-0.0253524
-0.0259227
-0.0265049
-0.027098
-0.0277034
-0.0283197
-0.0289489
-0.0295888
-0.030242
-0.0309063
-0.0315838
-0.0322736
-0.0329759
-0.0336921
-0.0344197
-0.0351635
-0.0359173
-0.0366891
-0.037471
-0.0382702
-0.0390828
-0.0399088
-0.0407541
-0.0416081
-0.0424853
-0.0433712
-0.044277
-0.0451993
-0.0461321
-0.0470903
-0.0480535
-0.0490404
-0.0500373
-0.0510398
-0.0520662
-0.0529834
-0.053898
0.0206766
0.0181918
0.010428
0.00328333
-0.000522379
-0.00158642
-0.00169857
-0.00191646
-0.00243472
-0.00309792
-0.00366933
-0.00403184
-0.00436254
-0.00487643
-0.00539911
-0.00573951
-0.00604573
-0.00641684
-0.0068261
-0.0072833
-0.00771768
-0.00806498
-0.00841383
-0.00884296
-0.00928784
-0.00965682
-0.00998465
-0.010372
-0.0108026
-0.0111785
-0.0115117
-0.0118841
-0.0122712
-0.0126105
-0.0129366
-0.0132889
-0.0136366
-0.0139701
-0.0143137
-0.0146637
-0.0150127
-0.0153704
-0.0157342
-0.0160986
-0.0164741
-0.0168636
-0.0172568
-0.0176532
-0.0180611
-0.0184809
-0.0189079
-0.0193424
-0.0197872
-0.0202424
-0.0207071
-0.0211815
-0.0216661
-0.022161
-0.0226662
-0.0231819
-0.0237081
-0.0242452
-0.0247931
-0.0253524
-0.0259227
-0.0265049
-0.027098
-0.0277034
-0.0283197
-0.0289489
-0.0295888
-0.030242
-0.0309063
-0.0315838
-0.0322736
-0.0329759
-0.0336921
-0.0344197
-0.0351635
-0.0359173
-0.0366891
-0.037471
-0.0382702
-0.0390828
-0.0399088
-0.0407541
-0.0416081
-0.0424853
-0.0433712
-0.044277
-0.0451993
-0.0461321
-0.0470903
-0.0480535
-0.0490404
-0.0500374
-0.0510398
-0.0520663
-0.052984
-0.0538986
0.0196283
0.0176763
0.0105873
0.00362257
-0.000278973
-0.00148642
-0.00166165
-0.00188451
-0.00239844
-0.00305949
-0.00363196
-0.00400383
-0.00434571
-0.00486152
-0.00538049
-0.00572153
-0.00603319
-0.00640918
-0.00681911
-0.00727336
-0.00770617
-0.00805609
-0.0084078
-0.00883596
-0.00927847
-0.00964799
-0.00997808
-0.0103655
-0.0107945
-0.0111704
-0.0115049
-0.0118775
-0.0122644
-0.0126042
-0.0129311
-0.0132838
-0.0136318
-0.013966
-0.0143102
-0.0146606
-0.0150099
-0.0153679
-0.015732
-0.0160968
-0.0164726
-0.0168623
-0.0172556
-0.0176522
-0.0180603
-0.0184802
-0.0189073
-0.0193419
-0.0197868
-0.020242
-0.0207068
-0.0211813
-0.0216659
-0.0221608
-0.022666
-0.0231818
-0.023708
-0.0242452
-0.0247931
-0.0253524
-0.0259227
-0.0265049
-0.027098
-0.0277034
-0.0283197
-0.0289489
-0.0295888
-0.030242
-0.0309063
-0.0315838
-0.0322736
-0.0329759
-0.0336921
-0.0344197
-0.0351635
-0.0359173