/*--------------------------------*- C++ -*----------------------------------*\
| =========                 |                                                 |
| \\      /  F ield         | OpenFOAM: The Open Source CFD Toolbox           |
|  \\    /   O peration     | Version:  2106                                  |
|   \\  /    A nd           | Website:  www.openfoam.com                      |
|    \\/     M anipulation  |                                                 |
\*---------------------------------------------------------------------------*/
FoamFile
{
    version     2.0;
    format      ascii;
    arch        "LSB;label=32;scalar=64";
    class       surfaceScalarField;
    location    "0.235";
    object      phi;
}
// * * * * * * * * * * * * * * * * * * * * * * * * * * * * * * * * * * * * * //

dimensions      [0 3 -1 0 0 0 0];

oriented        oriented;

internalField   nonuniform List<scalar> 
19000
(
1.1788e-06
-1.21383e-07
1.16608e-06
8.53792e-08
1.17397e-06
4.67879e-08
1.15817e-06
7.60471e-08
1.16946e-06
-9.04043e-08
1.18003e-06
-1.03619e-07
1.16956e-06
-2.83764e-07
1.15095e-06
-1.55587e-07
1.18257e-06
2.54126e-07
1.17404e-06
1.70107e-07
1.15596e-06
2.81679e-07
1.1622e-06
4.95431e-07
1.15014e-06
2.10078e-07
1.14742e-06
1.18171e-07
1.15952e-06
-5.34492e-09
1.14827e-06
-2.36137e-07
1.16129e-06
1.95234e-08
1.1265e-06
-3.86974e-07
1.14151e-06
-5.24054e-08
-3.77815e-07
1.06508e-06
1.23447e-06
-1.31591e-07
1.22362e-06
9.62254e-08
1.22972e-06
4.06909e-08
1.21655e-06
8.92164e-08
1.22586e-06
-9.9712e-08
1.23747e-06
-1.15229e-07
1.2265e-06
-2.72797e-07
1.2094e-06
-1.38484e-07
1.23667e-06
2.26851e-07
1.23389e-06
1.72888e-07
1.208e-06
3.07572e-07
1.22386e-06
4.79573e-07
1.2045e-06
2.2943e-07
1.21082e-06
1.11853e-07
1.20997e-06
-4.49787e-09
1.21309e-06
-2.39253e-07
1.20887e-06
2.374e-08
1.1984e-06
-3.76498e-07
1.18534e-06
-3.93513e-08
-3.47398e-07
1.15493e-06
1.29109e-06
-1.39899e-07
1.28524e-06
1.0208e-07
1.28729e-06
3.86414e-08
1.27957e-06
9.69375e-08
1.28417e-06
-1.04314e-07
1.29793e-06
-1.28993e-07
1.28528e-06
-2.6015e-07
1.27338e-06
-1.26577e-07
1.29192e-06
2.08311e-07
1.2968e-06
1.68006e-07
1.26669e-06
3.37682e-07
1.28162e-06
4.6464e-07
1.26646e-06
2.44597e-07
1.2709e-06
1.07412e-07
1.26946e-06
-3.06007e-09
1.27147e-06
-2.41268e-07
1.27301e-06
2.22016e-08
1.26244e-06
-3.65928e-07
1.25823e-06
-3.51344e-08
-3.16582e-07
1.22741e-06
1.34932e-06
-1.45119e-07
1.34897e-06
1.0243e-07
1.34684e-06
4.07717e-08
1.34473e-06
9.90524e-08
1.34459e-06
-1.04175e-07
1.35911e-06
-1.4351e-07
1.34577e-06
-2.46809e-07
1.3392e-06
-1.20017e-07
1.35033e-06
1.97184e-07
1.358e-06
1.60335e-07
1.333e-06
3.62683e-07
1.34028e-06
4.57359e-07
1.33334e-06
2.51543e-07
1.33442e-06
1.06322e-07
1.33309e-06
-1.72907e-09
1.33247e-06
-2.40644e-07
1.3357e-06
1.8971e-08
1.32428e-06
-3.54503e-07
1.32261e-06
-3.34709e-08
-2.84081e-07
1.29011e-06
1.41017e-06
-1.46937e-07
1.41383e-06
9.8772e-08
1.40898e-06
4.56241e-08
1.41069e-06
9.73357e-08
1.40765e-06
-1.01126e-07
1.4203e-06
-1.56162e-07
1.40866e-06
-2.35174e-07
1.40533e-06
-1.16685e-07
1.41212e-06
1.90391e-07
1.4184e-06
1.54059e-07
1.40284e-06
3.78247e-07
1.40486e-06
4.55338e-07
1.40252e-06
2.53876e-07
1.40302e-06
1.05828e-07
1.40039e-06
8.984e-10
1.3975e-06
-2.37759e-07
1.40067e-06
1.58089e-08
1.38806e-06
-3.41899e-07
1.38812e-06
-3.35262e-08
-2.50986e-07
1.35502e-06
1.47477e-06
-1.46034e-07
1.48003e-06
9.35125e-08
1.4746e-06
5.10522e-08
1.47786e-06
9.40749e-08
1.47404e-06
-9.72995e-08
1.48294e-06
-1.65062e-07
1.47438e-06
-2.26619e-07
1.47253e-06
-1.1483e-07
1.47696e-06
1.85964e-07
1.48074e-06
1.5028e-07
1.47318e-06
3.85803e-07
1.47448e-06
4.54037e-07
1.474e-06
2.54361e-07
1.47489e-06
1.04935e-07
1.47141e-06
4.38005e-09
1.46645e-06
-2.328e-07
1.4693e-06
1.29526e-08
1.45498e-06
-3.27576e-07
1.45666e-06
-3.52063e-08
-2.17817e-07
1.42349e-06
1.54379e-06
-1.43606e-07
1.54869e-06
8.86127e-08
1.54431e-06
5.54309e-08
1.54763e-06
9.07523e-08
1.54417e-06
-9.38386e-08
1.54902e-06
-1.69911e-07
1.54305e-06
-2.20645e-07
1.54195e-06
-1.13733e-07
1.54484e-06
1.83073e-07
1.54669e-06
1.48431e-07
1.54422e-06
3.88275e-07
1.54725e-06
4.51008e-07
1.54803e-06
2.53572e-07
1.54941e-06
1.03559e-07
1.54571e-06
8.07718e-09
1.53914e-06
-2.26224e-07
1.54172e-06
1.03716e-08
1.52534e-06
-3.11199e-07
1.52835e-06
-3.8212e-08
-1.85017e-07
1.49555e-06
1.61722e-06
-1.40695e-07
1.62093e-06
8.49047e-08
1.61815e-06
5.82116e-08
1.62113e-06
8.77682e-08
1.61816e-06
-9.08656e-08
1.61972e-06
-1.71472e-07
1.61489e-06
-2.15817e-07
1.61432e-06
-1.13165e-07
1.61617e-06
1.81227e-07
1.61688e-06
1.47717e-07
1.61745e-06
3.87704e-07
1.62273e-06
4.45728e-07
1.62482e-06
2.51484e-07
1.6267e-06
1.01684e-07
1.62314e-06
1.16325e-08
1.61532e-06
-2.18405e-07
1.61788e-06
7.81681e-09
1.5994e-06
-2.9272e-07
1.60332e-06
-4.21348e-08
-1.53062e-07
1.57137e-06
1.69471e-06
-1.37827e-07
1.69735e-06
8.22633e-08
1.6959e-06
5.96581e-08
1.69875e-06
8.49154e-08
1.69599e-06
-8.81016e-08
1.69526e-06
-1.70745e-07
1.69032e-06
-2.10873e-07
1.69013e-06
-1.12971e-07
1.6914e-06
1.79956e-07
1.69156e-06
1.47556e-07
1.69418e-06
3.85084e-07
1.70142e-06
4.38489e-07
1.70466e-06
2.48237e-07
1.7069e-06
9.94517e-08
1.70369e-06
1.4843e-08
1.6948e-06
-2.09514e-07
1.69762e-06
4.9947e-09
1.67728e-06
-2.72378e-07
1.68168e-06
-4.65397e-08
-1.22493e-07
1.65111e-06
1.77597e-06
-1.35079e-07
1.77806e-06
8.01768e-08
1.77742e-06
6.03023e-08
1.78043e-06
8.19025e-08
1.77764e-06
-8.53139e-08
1.77546e-06
-1.68561e-07
1.76974e-06
-2.05156e-07
1.76975e-06
-1.12984e-07
1.77085e-06
1.78861e-07
1.77083e-06
1.4757e-07
1.77508e-06
3.80842e-07
1.78376e-06
4.29805e-07
1.78786e-06
2.44138e-07
1.79012e-06
9.71878e-08
1.78736e-06
1.76042e-08
1.77746e-06
-1.99618e-07
1.78076e-06
1.70383e-09
1.75901e-06
-2.50632e-07
1.76346e-06
-5.09857e-08
-9.39066e-08
1.73487e-06
1.86101e-06
-1.32341e-07
1.86299e-06
7.81945e-08
1.8627e-06
6.05912e-08
1.86602e-06
7.85845e-08
1.86311e-06
-8.23995e-08
1.86009e-06
-1.65546e-07
1.85347e-06
-1.9853e-07
1.85351e-06
-1.13025e-07
1.85468e-06
1.77689e-07
1.85472e-06
1.47529e-07
1.86033e-06
3.75236e-07
1.86991e-06
4.20217e-07
1.87456e-06
2.39491e-07
1.87649e-06
9.52603e-08
1.87423e-06
1.98662e-08
1.86339e-06
-1.88781e-07
1.86721e-06
-2.1167e-09
1.84465e-06
-2.28068e-07
1.84868e-06
-5.50245e-08
-6.7893e-08
1.82267e-06
1.95e-06
-1.29505e-07
1.95213e-06
7.60724e-08
1.95192e-06
6.07974e-08
1.95554e-06
7.49589e-08
1.95246e-06
-7.93131e-08
1.9491e-06
-1.62183e-07
1.94173e-06
-1.91167e-07
1.94159e-06
-1.12885e-07
1.94293e-06
1.76354e-07
1.94314e-06
1.47317e-07
1.94985e-06
3.68523e-07
1.95984e-06
4.10228e-07
1.96486e-06
2.34468e-07
1.96619e-06
9.39359e-08
1.96445e-06
2.16036e-08
1.95279e-06
-1.77123e-07
1.95704e-06
-6.36704e-09
1.93429e-06
-2.05317e-07
1.93747e-06
-5.81982e-08
-4.49544e-08
1.91453e-06
2.04321e-06
-1.26526e-07
2.04556e-06
7.37235e-08
2.0453e-06
6.10596e-08
2.04917e-06
7.10874e-08
2.04587e-06
-7.60136e-08
2.0425e-06
-1.58815e-07
2.03469e-06
-1.83358e-07
2.03415e-06
-1.12338e-07
2.0356e-06
1.74894e-07
2.036e-06
1.46918e-07
2.04357e-06
3.6096e-07
2.05354e-06
4.00251e-07
2.05894e-06
2.29069e-07
2.05955e-06
9.33253e-08
2.05833e-06
2.28238e-08
2.04605e-06
-1.6484e-07
2.05048e-06
-1.07937e-08
2.02813e-06
-1.82966e-07
2.03003e-06
-6.01078e-08
-2.53921e-08
2.01047e-06
2.14088e-06
-1.23401e-07
2.14347e-06
7.11316e-08
2.14309e-06
6.14408e-08
2.14714e-06
6.70358e-08
2.14359e-06
-7.24659e-08
2.1404e-06
-1.55627e-07
2.13243e-06
-1.75383e-07
2.1313e-06
-1.11205e-07
2.13281e-06
1.73381e-07
2.13332e-06
1.46403e-07
2.14155e-06
3.52734e-07
2.15121e-06
3.90588e-07
2.15709e-06
2.2319e-07
2.15702e-06
9.33945e-08
2.15624e-06
2.36026e-08
2.14359e-06
-1.5219e-07
2.14782e-06
-1.50213e-08
2.12636e-06
-1.61502e-07
2.12675e-06
-6.04965e-08
-9.22861e-09
2.11058e-06
2.24322e-06
-1.20137e-07
2.24606e-06
6.8297e-08
2.24553e-06
6.19681e-08
2.24972e-06
6.28482e-08
2.24592e-06
-6.86614e-08
2.24294e-06
-1.52654e-07
2.23499e-06
-1.67434e-07
2.23319e-06
-1.09399e-07
2.23475e-06
1.71821e-07
2.23524e-06
1.45911e-07
2.24405e-06
3.43921e-07
2.25322e-06
3.81419e-07
2.25968e-06
2.1673e-07
2.25907e-06
9.40078e-08
2.25856e-06
2.41066e-08
2.24584e-06
-1.39469e-07
2.24944e-06
-1.86165e-08
2.22922e-06
-1.41288e-07
2.22804e-06
-5.93122e-08
3.80526e-09
2.21501e-06
2.35047e-06
-1.16736e-07
2.35355e-06
6.52183e-08
2.35287e-06
6.26531e-08
2.35717e-06
5.85502e-08
2.35313e-06
-6.46295e-08
2.35031e-06
-1.49825e-07
2.34248e-06
-1.59612e-07
2.33999e-06
-1.0691e-07
2.34169e-06
1.70122e-07
2.34199e-06
1.45618e-07
2.35141e-06
3.345e-07
2.36001e-06
3.72819e-07
2.36706e-06
2.09679e-07
2.3661e-06
9.49681e-08
2.36562e-06
2.45815e-08
2.35313e-06
-1.26976e-07
2.3557e-06
-2.11897e-08
2.33695e-06
-1.22533e-07
2.33432e-06
-5.66873e-08
1.41773e-08
2.32395e-06
2.46285e-06
-1.13194e-07
2.46618e-06
6.1891e-08
2.46534e-06
6.34984e-08
2.46972e-06
5.41625e-08
2.46552e-06
-6.04301e-08
2.46272e-06
-1.47017e-07
2.45507e-06
-1.51968e-07
2.45192e-06
-1.03756e-07
2.45392e-06
1.68119e-07
2.45384e-06
1.45694e-07
2.46392e-06
3.24422e-07
2.47198e-06
3.64765e-07
2.47951e-06
2.02149e-07
2.47843e-06
9.60428e-08
2.4777e-06
2.53119e-08
2.46569e-06
-1.14968e-07
2.46701e-06
-2.25041e-08
2.44972e-06
-1.05246e-07
2.44591e-06
-5.28787e-08
2.23936e-08
2.4377e-06
2.58061e-06
-1.09507e-07
2.58419e-06
5.8312e-08
2.58319e-06
6.44976e-08
2.58763e-06
4.97143e-08
2.58335e-06
-5.61408e-08
2.58043e-06
-1.441e-07
2.573e-06
-1.4454e-07
2.56919e-06
-9.99444e-08
2.57168e-06
1.65629e-07
2.5711e-06
1.46267e-07
2.58185e-06
3.13675e-07
2.58946e-06
3.57154e-07
2.59725e-06
1.94358e-07
2.59632e-06
9.6978e-08
2.59506e-06
2.65756e-08
2.5837e-06
-1.03614e-07
2.58375e-06
-2.25489e-08
2.56773e-06
-8.92253e-08
2.56308e-06
-4.82315e-08
2.89114e-08
2.55656e-06
2.70399e-06
-1.05672e-07
2.70782e-06
5.44828e-08
2.70669e-06
6.5633e-08
2.71115e-06
4.52499e-08
2.70686e-06
-5.18462e-08
2.7037e-06
-1.40946e-07
2.69655e-06
-1.37388e-07
2.69206e-06
-9.54549e-08
2.69518e-06
1.62511e-07
2.69406e-06
1.47393e-07
2.70541e-06
3.02318e-07
2.71275e-06
3.4982e-07
2.72053e-06
1.86577e-07
2.71997e-06
9.75324e-08
2.71795e-06
2.85965e-08
2.70732e-06
-9.29824e-08
2.70627e-06
-2.15022e-08
2.69121e-06
-7.41612e-08
2.68606e-06
-4.30835e-08
3.40829e-08
2.68089e-06
2.83329e-06
-1.01693e-07
2.83736e-06
5.0411e-08
2.83612e-06
6.68738e-08
2.84054e-06
4.08304e-08
2.83633e-06
-4.76352e-08
2.83282e-06
-1.37436e-07
2.82602e-06
-1.30593e-07
2.82082e-06
-9.02506e-08
2.82464e-06
1.58687e-07
2.823e-06
1.49041e-07
2.83482e-06
2.90489e-07
2.8421e-06
3.42548e-07
2.84956e-06
1.7911e-07
2.84959e-06
9.75113e-08
2.84671e-06
3.14701e-08
2.83671e-06
-8.2983e-08
2.83488e-06
-1.96661e-08
2.8205e-06
-5.97891e-08
2.81505e-06
-3.76267e-08
3.80905e-08
2.81104e-06
2.96878e-06
-9.75775e-08
2.97308e-06
4.6112e-08
2.97178e-06
6.81744e-08
2.97607e-06
3.65342e-08
2.97204e-06
-4.36015e-08
2.96806e-06
-1.33455e-07
2.96171e-06
-1.24245e-07
2.95577e-06
-8.43071e-08
2.96029e-06
1.54161e-07
2.95824e-06
1.51098e-07
2.97032e-06
2.78404e-07
2.97779e-06
3.35079e-07
2.98464e-06
1.72257e-07
2.98537e-06
9.67809e-08
2.98167e-06
3.51771e-08
2.97209e-06
-7.34017e-08
2.9698e-06
-1.7383e-08
2.95599e-06
-4.59783e-08
2.95024e-06
-3.18794e-08
4.09891e-08
2.94735e-06
3.11077e-06
-9.33366e-08
3.11527e-06
4.16099e-08
3.11397e-06
6.94742e-08
3.11805e-06
3.24546e-08
3.11429e-06
-3.98434e-08
3.10972e-06
-1.2889e-07
3.1039e-06
-1.18425e-07
3.09723e-06
-7.76356e-08
3.10237e-06
1.49018e-07
3.1001e-06
1.53373e-07
3.11218e-06
2.66328e-07
3.1201e-06
3.27155e-07
3.12608e-06
1.66274e-07
3.12756e-06
9.53011e-08
3.12317e-06
3.95732e-08
3.11372e-06
-6.39551e-08
3.11128e-06
-1.49388e-08
3.09804e-06
-3.27426e-08
3.09192e-06
-2.5759e-08
4.28207e-08
3.09009e-06
3.25956e-06
-8.89854e-08
3.26423e-06
3.69387e-08
3.26301e-06
7.06965e-08
3.26676e-06
2.86984e-08
3.26338e-06
-3.64612e-08
3.25813e-06
-1.23643e-07
3.2529e-06
-1.13186e-07
3.24556e-06
-7.02973e-08
3.25115e-06
1.43421e-07
3.24893e-06
1.55595e-07
3.26068e-06
2.54576e-07
3.2693e-06
3.1854e-07
3.27424e-06
1.61329e-07
3.27637e-06
9.31716e-08
3.27155e-06
4.43988e-08
3.26198e-06
-5.4389e-08
3.25952e-06
-1.24762e-08
3.24701e-06
-2.02297e-08
3.24038e-06
-1.91284e-08
4.36456e-08
3.23955e-06
3.41549e-06
-8.45428e-08
3.42028e-06
3.21434e-08
3.41923e-06
7.17485e-08
3.42255e-06
2.53828e-08
3.41964e-06
-3.35507e-08
3.41364e-06
-1.17642e-07
3.40898e-06
-1.08534e-07
3.4011e-06
-6.2414e-08
3.40693e-06
1.37593e-07
3.40507e-06
1.57459e-07
3.41619e-06
2.43449e-07
3.42564e-06
3.09094e-07
3.42953e-06
1.57442e-07
3.43206e-06
9.06364e-08
3.4271e-06
4.93587e-08
3.41731e-06
-4.45938e-08
3.41479e-06
-9.96091e-09
3.40322e-06
-8.65787e-09
3.39598e-06
-1.18918e-08
4.36243e-08
3.396e-06
3.5789e-06
-8.00316e-08
3.58376e-06
2.72815e-08
3.58299e-06
7.25219e-08
3.58574e-06
2.26308e-08
3.58338e-06
-3.11938e-08
3.5766e-06
-1.10861e-07
3.57248e-06
-1.0441e-07
3.56424e-06
-5.4175e-08
3.57002e-06
1.31813e-07
3.56885e-06
1.58631e-07
3.57906e-06
2.33232e-07
3.58936e-06
2.98799e-07
3.59234e-06
1.54464e-07
3.59495e-06
8.80205e-08
3.59013e-06
5.41867e-08
3.58008e-06
-3.45523e-08
3.57744e-06
-7.32081e-09
3.56698e-06
1.80955e-09
3.55916e-06
-4.07184e-09
4.30428e-08
3.55974e-06
3.75015e-06
-7.54789e-08
3.75501e-06
2.24232e-08
3.75463e-06
7.29017e-08
3.75671e-06
2.05568e-08
3.75496e-06
-2.94463e-08
3.74743e-06
-1.03329e-07
3.7437e-06
-1.00685e-07
3.73535e-06
-4.58254e-08
3.74079e-06
1.26372e-07
3.7406e-06
1.58827e-07
3.74972e-06
2.24103e-07
3.76072e-06
2.87808e-07
3.76306e-06
1.52116e-07
3.76544e-06
8.56423e-08
3.76093e-06
5.87006e-08
3.75071e-06
-2.43292e-08
3.74786e-06
-4.47953e-09
3.73859e-06
1.10799e-08
3.73031e-06
4.21197e-09
4.22571e-08
3.7311e-06
3.92962e-06
-7.09156e-08
3.9344e-06
1.76516e-08
3.93453e-06
7.27729e-08
3.93583e-06
1.92527e-08
3.9347e-06
-2.83201e-08
3.92652e-06
-9.51453e-08
3.92299e-06
-9.71579e-08
3.91483e-06
-3.76601e-08
3.91965e-06
1.21545e-07
3.92058e-06
1.57898e-07
3.92866e-06
2.1603e-07
3.94001e-06
2.76456e-07
3.94206e-06
1.50064e-07
3.94399e-06
8.37103e-08
3.93983e-06
6.28575e-08
3.92956e-06
-1.40499e-08
3.92646e-06
-1.38629e-09
3.9184e-06
1.91431e-08
3.90986e-06
1.27488e-08
4.16439e-08
3.91048e-06
4.11771e-06
-6.63758e-08
4.1223e-06
1.30628e-08
4.12305e-06
7.20247e-08
4.12352e-06
1.87763e-08
4.12298e-06
-2.77715e-08
4.11432e-06
-8.64865e-08
4.11073e-06
-9.35673e-08
4.10306e-06
-2.99952e-08
4.10705e-06
1.17552e-07
4.10909e-06
1.55865e-07
4.11633e-06
2.08792e-07
4.12763e-06
2.65153e-07
4.12965e-06
1.48042e-07
4.13107e-06
8.22906e-08
4.12722e-06
6.6703e-08
4.11703e-06
-3.85231e-09
4.11364e-06
1.99726e-09
4.10676e-06
2.60271e-08
4.09822e-06
2.12853e-08
4.15425e-08
4.09832e-06
4.31482e-06
-6.1896e-08
4.31912e-06
8.76247e-09
4.32059e-06
7.0561e-08
4.32023e-06
1.91374e-08
4.32015e-06
-2.76985e-08
4.31126e-06
-7.7592e-08
4.30731e-06
-8.96156e-08
4.30044e-06
-2.31264e-08
4.30348e-06
1.14507e-07
4.30643e-06
1.52921e-07
4.31317e-06
2.02043e-07
4.32406e-06
2.54271e-07
4.32616e-06
1.45937e-07
4.32712e-06
8.13279e-08
4.32355e-06
7.02786e-08
4.31352e-06
6.17904e-09
4.30982e-06
5.69116e-09
4.30408e-06
3.17711e-08
4.2958e-06
2.95682e-08
4.22081e-08
4.29513e-06
4.52139e-06
-5.75139e-08
4.52529e-06
4.86169e-09
4.52754e-06
6.83122e-08
4.52639e-06
2.02851e-08
4.52664e-06
-2.79414e-08
4.51779e-06
-6.87485e-08
4.51318e-06
-8.50015e-08
4.50733e-06
-1.72781e-08
4.50945e-06
1.12387e-07
4.51297e-06
1.49398e-07
4.5196e-06
1.95418e-07
4.52985e-06
2.44024e-07
4.53193e-06
1.43851e-07
4.53261e-06
8.06519e-08
4.52928e-06
7.3611e-08
4.51946e-06
1.59954e-08
4.51545e-06
9.69838e-09
4.51078e-06
3.64412e-08
4.50299e-06
3.73572e-08
4.378e-08
4.50142e-06
4.73787e-06
-5.32657e-08
4.74126e-06
1.47258e-09
4.74433e-06
6.52423e-08
4.74251e-06
2.20976e-08
4.74286e-06
-2.82857e-08
4.73436e-06
-6.02531e-08
4.72885e-06
-7.94861e-08
4.7241e-06
-1.25287e-08
4.72549e-06
1.10994e-07
4.7292e-06
1.45694e-07
4.73596e-06
1.88648e-07
4.74552e-06
2.34466e-07
4.74742e-06
1.41956e-07
4.74794e-06
8.01289e-08
4.7449e-06
7.66477e-08
4.73534e-06
2.55535e-08
4.73098e-06
1.4063e-08
4.7273e-06
4.01224e-08
4.72025e-06
4.44104e-08
4.6275e-08
4.71775e-06
4.96472e-06
-4.91856e-08
4.96749e-06
-1.29765e-09
4.97138e-06
6.13538e-08
4.96909e-06
2.43829e-08
4.96928e-06
-2.84732e-08
4.96141e-06
-5.23867e-08
4.95485e-06
-7.29198e-08
4.95111e-06
-8.79622e-09
4.95212e-06
1.09992e-07
4.95562e-06
1.42185e-07
4.96262e-06
1.81649e-07
4.97163e-06
2.25457e-07
4.97315e-06
1.40436e-07
4.97354e-06
7.97454e-08
4.9709e-06
7.92862e-08
4.9617e-06
3.47527e-08
4.95695e-06
1.88131e-08
4.95404e-06
4.30359e-08
4.94801e-06
5.04314e-08
4.95963e-08
4.94469e-06
5.20243e-06
-4.5303e-08
5.2045e-06
-3.36039e-09
5.20915e-06
5.6698e-08
5.20665e-06
2.68848e-08
5.20639e-06
-2.82164e-08
5.19939e-06
-4.53822e-08
5.19176e-06
-6.52936e-08
5.18878e-06
-5.81332e-09
5.18982e-06
1.08949e-07
5.19285e-06
1.39161e-07
5.19997e-06
1.7453e-07
5.20869e-06
2.16728e-07
5.20973e-06
1.39404e-07
5.20986e-06
7.96117e-08
5.20778e-06
8.1367e-08
5.19901e-06
4.3527e-08
5.19389e-06
2.3932e-08
5.19151e-06
4.54123e-08
5.1867e-06
5.52454e-08
5.34692e-08
5.18282e-06
5.45153e-06
-4.16392e-08
5.45282e-06
-4.65891e-09
5.45814e-06
5.13844e-08
5.45573e-06
2.92945e-08
5.45474e-06
-2.72287e-08
5.44874e-06
-3.9385e-08
5.44022e-06
-5.67721e-08
5.43757e-06
-3.16131e-09
5.43907e-06
1.07452e-07
5.4415e-06
1.36732e-07
5.44849e-06
1.67531e-07
5.45713e-06
2.08091e-07
5.45778e-06
1.38753e-07
5.45747e-06
7.99205e-08
5.456e-06
8.28398e-08
5.4478e-06
5.17266e-08
5.44236e-06
2.93697e-08
5.4403e-06
4.74724e-08
5.43668e-06
5.88685e-08
5.74554e-08
5.43269e-06
5.71252e-06
-3.82055e-08
5.71305e-06
-5.18442e-09
5.71884e-06
4.55926e-08
5.71686e-06
3.12783e-08
5.71492e-06
-2.52874e-08
5.70993e-06
-3.4394e-08
5.70084e-06
-4.76887e-08
5.69806e-06
-3.74803e-10
5.70027e-06
1.05239e-07
5.70221e-06
1.34786e-07
5.70877e-06
1.60978e-07
5.71741e-06
1.9945e-07
5.71788e-06
1.38286e-07
5.71707e-06
8.07214e-08
5.71604e-06
8.38748e-08
5.70861e-06
5.91592e-08
5.70297e-06
3.50061e-08
5.70106e-06
4.93859e-08
5.69841e-06
6.15141e-08
6.10827e-08
5.69478e-06
5.98599e-06
-3.5001e-08
5.98579e-06
-4.98666e-09
5.99181e-06
3.95778e-08
5.99059e-06
3.24939e-08
5.98756e-06
-2.22606e-08
5.98343e-06
-3.0264e-08
5.97423e-06
-3.84827e-08
5.9709e-06
2.9476e-09
5.97386e-06
1.02284e-07
5.97565e-06
1.32992e-07
5.98141e-06
1.55219e-07
5.99002e-06
1.90846e-07
5.99058e-06
1.37726e-07
5.98928e-06
8.20227e-08
5.98854e-06
8.46059e-08
5.98193e-06
6.57775e-08
5.97626e-06
4.06741e-08
5.97443e-06
5.12125e-08
5.97246e-06
6.34876e-08
6.39919e-08
5.96955e-06
6.2725e-06
-3.20106e-08
6.27169e-06
-4.17517e-09
6.27761e-06
3.36578e-08
6.27745e-06
3.26509e-08
6.27337e-06
-1.81784e-08
6.2698e-06
-2.66996e-08
6.26093e-06
-2.96134e-08
6.25685e-06
7.03267e-09
6.26033e-06
9.8803e-08
6.26236e-06
1.30965e-07
6.26723e-06
1.50347e-07
6.2755e-06
1.82574e-07
6.27638e-06
1.36849e-07
6.27476e-06
8.36423e-08
6.27418e-06
8.51866e-08
6.26838e-06
7.157e-08
6.26276e-06
4.63017e-08
6.26104e-06
5.2927e-08
6.25954e-06
6.49941e-08
6.60885e-08
6.25744e-06
6.57266e-06
-2.92055e-08
6.57139e-06
-2.90046e-09
6.57687e-06
2.81823e-08
6.57797e-06
3.15502e-08
6.57305e-06
-1.32631e-08
6.56963e-06
-2.3283e-08
6.56151e-06
-2.14884e-08
6.55663e-06
1.19084e-08
6.56026e-06
9.51786e-08
6.56285e-06
1.28374e-07
6.56697e-06
1.46222e-07
6.57457e-06
1.74975e-07
6.5758e-06
1.35619e-07
6.57413e-06
8.53117e-08
6.57364e-06
8.56814e-08
6.56865e-06
7.65575e-08
6.56307e-06
5.18782e-08
6.56149e-06
5.45128e-08
6.56039e-06
6.60974e-08
6.74904e-08
6.55898e-06
6.88713e-06
-2.65445e-08
6.88556e-06
-1.33583e-09
6.89027e-06
2.34799e-08
6.89268e-06
2.91337e-08
6.88733e-06
-7.90756e-09
6.88361e-06
-1.95683e-08
6.87648e-06
-1.43571e-08
6.871e-06
1.73862e-08
6.87433e-06
9.1851e-08
6.87763e-06
1.25072e-07
6.88134e-06
1.42513e-07
6.88802e-06
1.68293e-07
6.88951e-06
1.34133e-07
6.88796e-06
8.686e-08
6.88762e-06
8.60192e-08
6.8834e-06
8.07773e-08
6.87789e-06
5.7388e-08
6.87638e-06
5.60289e-08
6.87567e-06
6.6804e-08
6.83503e-08
6.87481e-06
7.21657e-06
-2.39765e-08
7.2149e-06
3.3169e-10
7.21856e-06
1.98182e-08
7.22219e-06
2.5511e-08
7.21693e-06
-2.65084e-09
7.21248e-06
-1.51218e-08
7.20641e-06
-8.28441e-09
7.20071e-06
2.30878e-08
7.20333e-06
8.92326e-08
7.20727e-06
1.21124e-07
7.21096e-06
1.3883e-07
7.21678e-06
1.62472e-07
7.21815e-06
1.3276e-07
7.21684e-06
8.8171e-08
7.21681e-06
8.60542e-08
7.21335e-06
8.42344e-08
7.20797e-06
6.27626e-08
7.20641e-06
5.75931e-08
7.20607e-06
6.71408e-08
6.88747e-08
7.20555e-06
7.56169e-06
-2.14436e-08
7.56012e-06
1.90769e-09
7.56257e-06
1.73681e-08
7.56712e-06
2.09545e-08
7.56253e-06
1.94289e-09
7.5571e-06
-9.6895e-09
7.55187e-06
-3.06019e-09
7.54644e-06
2.85206e-08
7.54814e-06
8.75346e-08
7.55239e-06
1.16871e-07
7.55645e-06
1.34769e-07
7.56159e-06
1.57331e-07
7.56261e-06
1.31743e-07
7.5614e-06
8.93827e-08
7.56184e-06
8.5613e-08
7.55921e-06
8.6865e-08
7.55408e-06
6.78884e-08
7.5523e-06
5.93768e-08
7.55236e-06
6.7076e-08
6.93247e-08
7.55191e-06
7.92325e-06
-1.88868e-08
7.92195e-06
3.21237e-09
7.92314e-06
1.61745e-08
7.92822e-06
1.58753e-08
7.92478e-06
5.38629e-09
7.91836e-06
-3.27394e-09
7.91354e-06
1.7668e-09
7.90886e-06
3.3195e-08
7.90968e-06
8.6715e-08
7.91373e-06
1.12825e-07
7.9184e-06
1.301e-07
7.92322e-06
1.52504e-07
7.92383e-06
1.31136e-07
7.92242e-06
9.07934e-08
7.92327e-06
8.47638e-08
7.92176e-06
8.83769e-08
7.91696e-06
7.26893e-08
7.91481e-06
6.15211e-08
7.9153e-06
6.65847e-08
6.97353e-08
7.91489e-06
8.30204e-06
-1.62491e-08
8.30117e-06
4.08521e-09
8.30118e-06
1.61645e-08
8.30622e-06
1.08311e-08
8.30433e-06
7.27939e-09
8.2972e-06
3.85475e-09
8.29218e-06
6.79337e-09
8.28862e-06
3.67516e-08
8.28885e-06
8.64889e-08
8.2922e-06
1.09473e-07
8.29736e-06
1.24939e-07
8.30241e-06
1.47452e-07
8.30273e-06
1.30819e-07
8.30084e-06
9.26849e-08
8.30186e-06
8.37417e-08
8.30157e-06
8.8662e-08
8.29745e-06
7.68122e-08
8.29484e-06
6.41264e-08
8.29547e-06
6.59627e-08
6.96878e-08
8.29551e-06
8.69889e-06
-1.34808e-08
8.69859e-06
4.39109e-09
8.69755e-06
1.72007e-08
8.702e-06
6.37832e-09
8.70184e-06
7.44691e-09
8.69452e-06
1.11726e-08
8.68876e-06
1.25549e-08
8.68629e-06
3.92171e-08
8.68652e-06
8.6261e-08
8.68885e-06
1.0714e-07
8.69407e-06
1.19722e-07
8.69977e-06
1.41751e-07
8.70014e-06
1.30454e-07
8.69771e-06
9.51143e-08
8.69846e-06
8.29862e-08
8.69928e-06
8.78449e-08
8.69632e-06
7.97694e-08
8.69328e-06
6.71672e-08
8.69369e-06
6.55581e-08
6.89578e-08
8.69442e-06
9.11469e-06
-1.05474e-08
9.11503e-06
4.04962e-09
9.11316e-06
1.90717e-08
9.11653e-06
3.00823e-09
9.11802e-06
5.95349e-09
9.11117e-06
1.80212e-08
9.10435e-06
1.9377e-08
9.10259e-06
4.09796e-08
9.10342e-06
8.54301e-08
9.10487e-06
1.05687e-07
9.10947e-06
1.1512e-07
9.11582e-06
1.35407e-07
9.11685e-06
1.29417e-07
9.1141e-06
9.78737e-08
9.11415e-06
8.29343e-08
9.11566e-06
8.63322e-08
9.1141e-06
8.13252e-08
9.11113e-06
7.01442e-08
9.11092e-06
6.57635e-08
6.77015e-08
9.11218e-06
9.55034e-06
-7.43243e-09
9.55134e-06
3.05318e-09
9.54893e-06
2.14852e-08
9.55082e-06
1.11812e-09
9.5537e-06
3.07311e-09
9.54797e-06
2.37468e-08
9.54004e-06
2.73082e-08
9.53837e-06
4.26521e-08
9.5403e-06
8.34978e-08
9.54123e-06
1.04754e-07
9.54471e-06
1.11647e-07
9.55133e-06
1.28784e-07
9.55358e-06
1.27168e-07
9.55086e-06
1.0059e-07
9.55006e-06
8.374e-08
9.55177e-06
8.46191e-08
9.55139e-06
8.17063e-08
9.54924e-06
7.22961e-08
9.54821e-06
6.6792e-08
6.62382e-08
9.54967e-06
1.00068e-05
-4.14493e-09
1.00084e-05
1.47629e-09
1.00058e-05
2.4085e-08
1.00059e-05
9.97495e-10
1.00098e-05
-7.3299e-10
1.00058e-05
2.77364e-08
9.99697e-06
3.60969e-08
9.99471e-06
4.492e-08
9.99776e-06
8.04382e-08
9.99897e-06
1.03546e-07
1.00011e-05
1.09569e-07
1.00073e-05
1.22497e-07
1.00109e-05
1.23632e-07
1.00089e-05
1.02569e-07
1.00074e-05
8.52387e-08
1.00087e-05
8.33619e-08
1.00092e-05
8.11716e-08
1.00081e-05
7.33931e-08
1.00068e-05
6.8107e-08
6.51265e-08
1.00079e-05
1.04852e-05
-7.17765e-10
1.04872e-05
-5.46829e-10
1.04848e-05
2.65028e-08
1.0483e-05
2.76579e-09
1.04872e-05
-4.86545e-09
1.04853e-05
2.96196e-08
1.04763e-05
4.51447e-08
1.04727e-05
4.843e-08
1.04767e-05
7.65079e-08
1.04789e-05
1.01319e-07
1.04798e-05
1.08624e-07
1.0485e-05
1.17357e-07
1.04895e-05
1.19077e-07
1.04889e-05
1.03179e-07
1.04871e-05
8.70888e-08
1.04877e-05
8.27516e-08
1.04885e-05
8.03185e-08
1.04885e-05
7.34271e-08
1.04877e-05
6.89548e-08
6.47794e-08
1.0488e-05
1.09865e-05
2.77916e-09
1.09888e-05
-2.79601e-09
1.09869e-05
2.83735e-08
1.09833e-05
6.34956e-09
1.09871e-05
-8.61701e-09
1.09874e-05
2.92635e-08
1.09789e-05
5.36475e-08
1.09738e-05
5.35148e-08
1.0978e-05
7.23883e-08
1.09817e-05
9.75823e-08
1.09822e-05
1.08085e-07
1.09857e-05
1.13861e-07
1.09906e-05
1.14175e-07
1.09916e-05
1.02232e-07
1.09901e-05
8.85276e-08
1.09902e-05
8.27389e-08
1.09907e-05
7.97758e-08
1.09914e-05
7.27411e-08
1.09915e-05
6.88149e-08
6.4946e-08
1.09914e-05
1.15119e-05
6.24538e-09
1.15141e-05
-4.995e-09
1.15131e-05
2.93453e-08
1.15079e-05
1.1553e-08
1.15106e-05
-1.1308e-08
1.15131e-05
2.67875e-08
1.1506e-05
6.07699e-08
1.14993e-05
6.01545e-08
1.15027e-05
6.89885e-08
1.15081e-05
9.2176e-08
1.15092e-05
1.07e-07
1.1511e-05
1.12035e-07
1.15153e-05
1.09876e-07
1.15177e-05
9.98486e-08
1.15174e-05
8.88657e-08
1.15171e-05
8.30462e-08
1.15172e-05
7.96524e-08
1.15178e-05
7.21725e-08
1.1519e-05
6.75408e-08
6.50157e-08
1.1519e-05
1.20625e-05
9.54596e-09
1.20643e-05
-6.81466e-09
1.20645e-05
2.91685e-08
1.20581e-05
1.79704e-08
1.20591e-05
-1.231e-08
1.20634e-05
2.24911e-08
1.20583e-05
6.5896e-08
1.20505e-05
6.78903e-08
1.20524e-05
6.70913e-08
1.2059e-05
8.55722e-08
1.20616e-05
1.04471e-07
1.20623e-05
1.11325e-07
1.20653e-05
1.06899e-07
1.20685e-05
9.66206e-08
1.20695e-05
8.78485e-08
1.20695e-05
8.30035e-08
1.20694e-05
7.97437e-08
1.20693e-05
7.23352e-08
1.20711e-05
6.57466e-08
6.43103e-08
1.20718e-05
1.26396e-05
1.25376e-08
1.26407e-05
-7.9364e-09
1.26422e-05
2.77089e-08
1.26351e-05
2.508e-08
1.2634e-05
-1.11879e-08
1.26395e-05
1.6968e-08
1.26369e-05
6.84791e-08
1.26287e-05
7.61085e-08
1.26286e-05
6.71846e-08
1.26356e-05
7.85572e-08
1.264e-05
1.00037e-07
1.26405e-05
1.10818e-07
1.2642e-05
1.05441e-07
1.26451e-05
9.35203e-08
1.26475e-05
8.54735e-08
1.26484e-05
8.20445e-08
1.26485e-05
7.96928e-08
1.26477e-05
7.31538e-08
1.26489e-05
6.44928e-08
6.26012e-08
1.26506e-05
1.32444e-05
1.50675e-08
1.32445e-05
-8.06412e-09
1.32473e-05
2.49727e-08
1.32401e-05
3.22666e-08
1.32366e-05
-7.73262e-09
1.32427e-05
1.09426e-08
1.32428e-05
6.83564e-08
1.3235e-05
8.39143e-08
1.32328e-05
6.93989e-08
1.32392e-05
7.21303e-08
1.32455e-05
9.37305e-08
1.32468e-05
1.09477e-07
1.32471e-05
1.05216e-07
1.32492e-05
9.13766e-08
1.32525e-05
8.22179e-08
1.32545e-05
7.99711e-08
1.32553e-05
7.88876e-08
1.32543e-05
7.41429e-08
1.32543e-05
6.4525e-08
6.03975e-08
1.32565e-05
1.38782e-05
1.70027e-08
1.38772e-05
-7.00326e-09
1.3881e-05
2.11833e-08
1.38744e-05
3.88151e-08
1.38687e-05
-1.99508e-09
1.38743e-05
5.35965e-09
1.38771e-05
6.55213e-08
1.38706e-05
9.0376e-08
1.38665e-05
7.35537e-08
1.38714e-05
6.7223e-08
1.38791e-05
8.59996e-08
1.38821e-05
1.06495e-07
1.38817e-05
1.05603e-07
1.38826e-05
9.05049e-08
1.38858e-05
7.89971e-08
1.3889e-05
7.68089e-08
1.38908e-05
7.70708e-08
1.38904e-05
7.45471e-08
1.38893e-05
6.56308e-08
5.87626e-08
1.38909e-05
1.45424e-05
1.82436e-08
1.45401e-05
-4.65213e-09
1.45446e-05
1.66616e-08
1.45393e-05
4.40707e-08
1.45316e-05
5.75057e-09
1.45358e-05
1.11286e-09
1.45411e-05
6.02618e-08
1.45368e-05
9.46893e-08
1.45312e-05
7.91738e-08
1.4534e-05
6.44307e-08
1.45423e-05
7.76455e-08
1.45473e-05
1.01517e-07
1.45472e-05
1.05665e-07
1.45469e-05
9.08591e-08
1.45492e-05
7.66244e-08
1.45532e-05
7.29022e-08
1.45559e-05
7.43268e-08
1.45566e-05
7.37996e-08
1.45553e-05
6.69761e-08
5.83238e-08
1.45557e-05
1.52384e-05
1.87458e-08
1.52348e-05
-1.08207e-09
1.52396e-05
1.18796e-08
1.52362e-05
4.75068e-08
1.52269e-05
1.49626e-08
1.52291e-05
-1.0138e-09
1.52362e-05
5.31247e-08
1.52346e-05
9.62788e-08
1.52283e-05
8.5504e-08
1.52287e-05
6.39739e-08
1.52367e-05
6.96909e-08
1.52435e-05
9.46675e-08
1.52448e-05
1.04445e-07
1.52436e-05
9.20507e-08
1.52447e-05
7.54842e-08
1.52486e-05
6.89974e-08
1.52523e-05
7.06746e-08
1.52541e-05
7.19297e-08
1.52535e-05
6.75848e-08
5.88602e-08
1.5253e-05
1.59675e-05
1.85297e-08
1.5963e-05
3.45228e-09
1.59675e-05
7.43756e-09
1.59662e-05
4.87944e-08
1.59563e-05
2.48545e-08
1.59558e-05
-4.9884e-10
1.5964e-05
4.48954e-08
1.59653e-05
9.49588e-08
1.59593e-05
9.15613e-08
1.59575e-05
6.57175e-08
1.59641e-05
6.31153e-08
1.59724e-05
8.63917e-08
1.59754e-05
1.01384e-07
1.59742e-05
9.33041e-08
1.5974e-05
7.56113e-08
1.59772e-05
6.58756e-08
1.59815e-05
6.6315e-08
1.59843e-05
6.91196e-08
1.59849e-05
6.69953e-08
5.95885e-08
1.59842e-05
1.67314e-05
1.76831e-08
1.67263e-05
8.58467e-09
1.67299e-05
3.87983e-09
1.67308e-05
4.78942e-08
1.67211e-05
3.45461e-08
1.67178e-05
2.74612e-09
1.67261e-05
3.66385e-08
1.67303e-05
9.07904e-08
1.67255e-05
9.63223e-08
1.6722e-05
6.9258e-08
1.67264e-05
5.8654e-08
1.67354e-05
7.74146e-08
1.67404e-05
9.63907e-08
1.67401e-05
9.36462e-08
1.67389e-05
7.6729e-08
1.67408e-05
6.40064e-08
1.67453e-05
6.18549e-08
1.6749e-05
6.53736e-08
1.67506e-05
6.53546e-08
5.96204e-08
1.67506e-05
1.75317e-05
1.63456e-08
1.75264e-05
1.3856e-08
1.75286e-05
1.68438e-09
1.75315e-05
4.50538e-08
1.75229e-05
4.31177e-08
1.75172e-05
8.44257e-09
1.75244e-05
2.94447e-08
1.7531e-05
8.4166e-08
1.75284e-05
9.88959e-08
1.75237e-05
7.39459e-08
1.75258e-05
5.6584e-08
1.75345e-05
6.87236e-08
1.75412e-05
8.97138e-08
1.75425e-05
9.23669e-08
1.7541e-05
7.8183e-08
1.75416e-05
6.34389e-08
1.75453e-05
5.8105e-08
1.75499e-05
6.0787e-08
1.75524e-05
6.28655e-08
5.86908e-08
1.75533e-05
1.837e-05
1.47141e-08
1.8365e-05
1.87842e-08
1.83656e-05
1.12859e-09
1.83699e-05
4.07769e-08
1.83632e-05
4.97948e-08
1.83557e-05
1.59732e-08
1.83609e-05
2.42574e-08
1.83693e-05
7.57166e-08
1.83694e-05
9.87657e-08
1.83645e-05
7.88852e-08
1.83643e-05
5.67658e-08
1.83717e-05
6.13529e-08
1.83796e-05
8.17704e-08
1.83827e-05
8.92543e-08
1.83818e-05
7.91422e-08
1.83814e-05
6.38163e-08
1.83839e-05
5.56328e-08
1.83887e-05
5.59372e-08
1.83921e-05
5.94704e-08
5.70188e-08
1.83938e-05
1.92481e-05
1.29964e-08
1.9244e-05
2.294e-08
1.92428e-05
2.27585e-09
1.92479e-05
3.57044e-08
1.92436e-05
5.40972e-08
1.92351e-05
2.44449e-08
1.92378e-05
2.16002e-08
1.9247e-05
6.64424e-08
1.925e-05