/*--------------------------------*- C++ -*----------------------------------*\
| =========                 |                                                 |
| \\      /  F ield         | OpenFOAM: The Open Source CFD Toolbox           |
|  \\    /   O peration     | Version:  2106                                  |
|   \\  /    A nd           | Website:  www.openfoam.com                      |
|    \\/     M anipulation  |                                                 |
\*---------------------------------------------------------------------------*/
FoamFile
{
    version     2.0;
    format      ascii;
    arch        "LSB;label=32;scalar=64";
    class       volScalarField;
    location    "0.71";
    object      p;
}
// * * * * * * * * * * * * * * * * * * * * * * * * * * * * * * * * * * * * * //

dimensions      [0 2 -2 0 0 0 0];

internalField   nonuniform List<scalar> 
9600
(
-1.12182e-11
0.00387119
0.00332279
0.00258901
0.00173253
0.00213612
0.00144319
0.00323616
0.00290305
0.00433505
0.00517158
0.00525851
0.00574845
0.00615321
0.0063636
0.00762637
0.00820301
0.0100907
0.0124692
0.0164713
2.01056e-06
0.00386465
0.00332407
0.00258565
0.00173492
0.00216079
0.00144692
0.00323513
0.00290631
0.00433344
0.00517038
0.00525542
0.00574953
0.00614986
0.00636863
0.00761552
0.00821818
0.0100569
0.0125371
0.0161089
4.48906e-06
0.00385639
0.00332626
0.00258339
0.0017405
0.00218138
0.00145081
0.00323128
0.00291163
0.00432904
0.00516779
0.00525681
0.00574999
0.00614682
0.00637734
0.00760084
0.0082352
0.0100133
0.0125615
0.0155977
7.82507e-06
0.00384746
0.00332913
0.0025849
0.00174688
0.00220113
0.00145709
0.00322621
0.00291825
0.00432433
0.00516321
0.00526249
0.00574696
0.00614305
0.00638823
0.00758239
0.00825203
0.00996362
0.0125346
0.0151458
1.29936e-05
0.00383761
0.00333281
0.00258946
0.00175343
0.00222052
0.00146692
0.00322055
0.00292587
0.00431862
0.00515591
0.00526796
0.00574105
0.0061371
0.00640035
0.00756046
0.0082688
0.00990538
0.0124835
0.0147398
2.04113e-05
0.00382656
0.00333728
0.00259593
0.0017598
0.00223904
0.00148051
0.0032149
0.00293406
0.0043111
0.00514631
0.00527104
0.00573344
0.0061282
0.00641352
0.00753578
0.0082844
0.00984185
0.0124083
0.0143625
2.99115e-05
0.00381424
0.00334256
0.00260341
0.00176574
0.00225644
0.00149778
0.00321004
0.00294285
0.00430251
0.00513534
0.00527083
0.00572487
0.00611624
0.00642749
0.00750884
0.00829716
0.00977495
0.0123068
0.0140076
4.10198e-05
0.00380078
0.00334866
0.00261134
0.00177133
0.0022728
0.00151875
0.00320645
0.00295293
0.00429404
0.00512344
0.00526686
0.00571579
0.00610129
0.0064419
0.00748006
0.00830498
0.00970566
0.0121787
0.0136713
5.32486e-05
0.00378636
0.00335557
0.00261948
0.00177686
0.00228842
0.00154347
0.00320401
0.00296504
0.00428633
0.00511084
0.00525898
0.00570647
0.00608351
0.0064562
0.00745
0.00830575
0.00963461
0.0120253
0.0133488
6.62563e-05
0.00377119
0.00336324
0.00262779
0.00178266
0.00230357
0.0015718
0.00320229
0.0029796
0.00427948
0.00509784
0.00524719
0.00569707
0.00606322
0.0064696
0.00741943
0.00829767
0.0095621
0.011848
0.0130345
7.98719e-05
0.00375541
0.00337166
0.00263626
0.001789
0.00231847
0.00160337
0.00320085
0.00299671
0.00427319
0.00508489
0.00523163
0.00568777
0.00604098
0.00648093
0.0073892
0.00827939
0.0094876
0.0116495
0.0127231
9.40484e-05
0.0037391
0.00338078
0.00264478
0.00179606
0.00233326
0.00163768
0.00319937
0.00301618
0.0042669
0.00507244
0.0052126
0.00567864
0.00601745
0.00648897
0.00735996
0.00824989
0.00940985
0.0114332
0.0124106
0.000108806
0.00372224
0.0033906
0.00265322
0.00180404
0.00234797
0.00167422
0.00319766
0.00303767
0.00426
0.00506094
0.0051905
0.00566952
0.00599345
0.0064926
0.00733204
0.00820857
0.00932695
0.0112027
0.0120939
0.000124195
0.00370481
0.0034011
0.00266144
0.00181309
0.0023626
0.00171258
0.00319561
0.00306092
0.00425194
0.00505067
0.00516581
0.00565987
0.00596982
0.0064908
0.00730536
0.00815567
0.00923623
0.0109617
0.0117804
0.000140283
0.00368674
0.00341229
0.00266934
0.00182336
0.0023771
0.00175249
0.00319315
0.00308573
0.00424239
0.00504173
0.00513906
0.00564899
0.00594732
0.0064827
0.00727929
0.00809219
0.00913477
0.0107138
0.0114525
0.000157146
0.00366796
0.00342421
0.00267682
0.00183496
0.00239141
0.00179383
0.00319019
0.00311199
0.00423118
0.00503402
0.00511082
0.0056366
0.00592651
0.0064678
0.00725247
0.0080196
0.00902038
0.0104619
0.0111198
0.000174873
0.00364836
0.0034369
0.00268381
0.001848
0.00240547
0.00183652
0.00318666
0.00313963
0.00421831
0.00502718
0.00508173
0.00561962
0.00590763
0.00644608
0.007223
0.00793941
0.00889187
0.0102071
0.0107842
0.000193567
0.00362782
0.00345042
0.00269024
0.00186257
0.00241923
0.00188049
0.00318251
0.00316858
0.00420402
0.00502069
0.00505242
0.00559845
0.00589055
0.00641806
0.00718874
0.00785253
0.00874885
0.00994992
0.0104478
0.000213347
0.00360621
0.00346485
0.00269604
0.00187872
0.00243268
0.00192565
0.00317774
0.00319868
0.00418862
0.00501401
0.0050234
0.0055725
0.00587469
0.00638468
0.00714774
0.00775926
0.00859201
0.00969049
0.0101133
0.000234345
0.00358339
0.00348024
0.00270115
0.00189649
0.00244582
0.00197194
0.00317237
0.00322959
0.00417254
0.00500662
0.00499507
0.00554192
0.00585906
0.00634653
0.00709873
0.00765977
0.00842248
0.00942834
0.0097834
0.000256715
0.00355912
0.00349665
0.00270551
0.00191591
0.00245871
0.00201918
0.00316657
0.00326096
0.00415631
0.00499798
0.00496766
0.00550686
0.00584252
0.00630357
0.0070409
0.0075543
0.0082415
0.00916284
0.00946009
0.000280622
0.00353321
0.00351413
0.00270909
0.00193695
0.00247145
0.00206713
0.00316059
0.00329236
0.00414039
0.00498774
0.00494124
0.00546728
0.00582405
0.00625562
0.00697371
0.00744293
0.00805012
0.00889325
0.00914512
0.000306241
0.00350548
0.00353271
0.00271188
0.00195955
0.0024842
0.00211549
0.0031548
0.00332323
0.00412507
0.00497586
0.00491569
0.00542334
0.00580279
0.00620249
0.00689671
0.00732569
0.00784951
0.0086187
0.00883943
0.000333764
0.00347572
0.00355242
0.0027139
0.0019836
0.00249723
0.00216387
0.00314962
0.00335319
0.00411054
0.00496219
0.00489055
0.00537593
0.00577836
0.00614382
0.0068092
0.00720285
0.00764158
0.00833852
0.00854231
0.000363401
0.00344372
0.00357321
0.00271526
0.0020089
0.00251081
0.00221178
0.00314544
0.00338202
0.00409688
0.00494669
0.00486532
0.00532489
0.0057505
0.00607934
0.00671014
0.00707484
0.00742917
0.00805215
0.00825139
0.000395364
0.00340928
0.00359504
0.0027161
0.00203518
0.00252538
0.00225878
0.00314256
0.00340957
0.00408385
0.00492981
0.00483972
0.00527043
0.00571876
0.00600918
0.00659856
0.00694159
0.00721554
0.00776
0.00796318
0.000429867
0.00337221
0.00361778
0.00271662
0.00206207
0.00254146
0.00230436
0.00314117
0.00343583
0.00407098
0.00491197
0.00481384
0.00521232
0.00568249
0.00593419
0.00647392
0.0068023
0.00700387
0.00746363
0.00767315
0.000467121
0.00333236
0.00364126
0.00271713
0.00208917
0.00255966
0.00234814
0.00314124
0.00346113
0.00405784
0.00489303
0.00478799
0.00514929
0.00564043
0.00585585
0.0063365
0.00665557
0.00679702
0.00716608
0.00737652
0.000507378
0.0032896
0.00366518
0.00271797
0.00211592
0.00258055
0.00238988
0.00314259
0.00348595
0.00404394
0.00487257
0.00476259
0.00508667
0.0055909
0.00577588
0.00618765
0.00649943
0.00659658
0.00687235
0.00707047
0.000550885
0.00324389
0.00368917
0.00271959
0.00214174
0.00260465
0.00242953
0.00314484
0.00351077
0.0040288
0.00484994
0.00473782
0.00500461
0.00553198
0.00569574
0.00602992
0.00633167
0.00640181
0.00658768
0.00675664
0.000597827
0.00319526
0.00371274
0.00272248
0.00216612
0.00263236
0.00246717
0.00314742
0.00353614
0.00401225
0.0048241
0.0047141
0.00491427
0.00546136
0.00561639
0.00586729
0.0061502
0.00620925
0.00631703
0.00644181
0.000648402
0.00314386
0.00373534
0.0027271
0.00218856
0.00266396
0.00250318
0.00314969
0.00356248
0.0039942
0.00479381
0.00469174
0.00481612
0.00537668
0.00553798
0.00570385
0.00595464
0.00601418
0.00606201
0.00613498
0.000702823
0.00308989
0.00375628
0.00273393
0.00220853
0.0026995
0.00253827
0.00315081
0.00359025
0.00397474
0.00475731
0.0046707
0.00471092
0.00527592
0.00545904
0.00554383
0.00574359
0.0058116
0.00582026
0.00584297
0.000761217
0.00303365
0.00377485
0.00274352
0.00222567
0.00273875
0.00257335
0.00314997
0.0036198
0.00395455
0.00471239
0.00465038
0.00460172
0.00515756
0.00537683
0.00539194
0.00552651
0.00559773
0.00558741
0.00556827
0.000823665
0.00297553
0.0037903
0.00275645
0.00223968
0.00278125
0.00260955
0.00314708
0.00365083
0.00393458
0.00465674
0.00462944
0.00449462
0.00502266
0.00528663
0.00525075
0.00530549
0.00537092
0.00535768
0.0053103
0.00089025
0.00291595
0.00380188
0.00277309
0.00225024
0.00282637
0.00264816
0.0031481
0.00368276
0.00391645
0.00458813
0.00460575
0.00439502
0.00486784
0.00518268
0.00511994
0.00508761
0.00513199
0.00512583
0.00506655
0.000960983
0.00285545
0.0038089
0.00279386
0.00225714
0.00287314
0.00269045
0.00313231
0.00371451
0.00390291
0.00450581
0.00457526
0.00430254
0.00468742
0.0050627
0.0049984
0.00487882
0.00488406
0.00488743
0.00483238
0.00103589
0.00279447
0.00381073
0.00281909
0.00226015
0.00292025
0.00273803
0.00310921
0.00374391
0.00389724
0.00441078
0.00453232
0.00423032
0.00449469
0.00491757
0.00487829
0.00468412
0.00463287
0.00464014
0.00460168
0.00111497
0.00273352
0.00380668
0.00284904
0.00225923
0.00296604
0.0027927
0.0030793
0.00376714
0.00390252
0.00430613
0.00447102
0.00417039
0.00431599
0.00475066
0.00475246
0.00450654
0.00438674
0.00438519
0.0043687
0.00119813
0.00267319
0.00379602
0.00288447
0.00225471
0.00300831
0.00285595
0.00304341
0.00377929
0.00392071
0.00419791
0.00438697
0.00411812
0.00416969
0.0045656
0.00461251
0.00434357
0.00415398
0.00412736
0.00413033
0.00128517
0.00261422
0.00377796
0.00292602
0.00224732
0.00304404
0.00292883
0.00300386
0.00377488
0.00395124
0.00409489
0.00427873
0.00406419
0.00403889
0.00437105
0.00445362
0.00418766
0.0039384
0.00387397
0.00388757
0.00137575
0.00255752
0.00375168
0.00297415
0.00223831
0.00306949
0.00301169
0.00296494
0.00374904
0.00399049
0.00400654
0.00414833
0.00399832
0.00392399
0.0041772
0.00427663
0.0040289
0.00373841
0.00363168
0.00364562
0.00146934
0.0025042
0.00371635
0.00302936
0.00222972
0.00308099
0.00310369
0.00293221
0.00369929
0.00403112
0.00394025
0.00400183
0.00391197
0.00382163
0.0039923
0.0040855
0.00386156
0.00354981
0.00340289
0.00340978
0.00156533
0.00245557
0.00367115
0.00309041
0.00222465
0.00307539
0.00320167
0.00291222
0.0036253
0.00406259
0.0039002
0.00384985
0.00379951
0.00372372
0.00382208
0.00388668
0.00368346
0.00336749
0.00318772
0.00318176
0.00166287
0.00241307
0.00361563
0.00315561
0.00222707
0.00305067
0.00329937
0.00291133
0.00352971
0.00407365
0.00388639
0.00370607
0.00366038
0.00361899
0.00366766
0.00368935
0.00349497
0.00318627
0.00298624
0.00296302
0.00176086
0.00237819
0.00355
0.00322191
0.00224145
0.00300655
0.003388
0.0029338
0.00341986
0.00405608
0.00389307
0.00358194
0.00349965
0.00349706
0.0035256
0.00350229
0.00330057
0.00300047
0.00279566
0.00275785
0.00185812
0.00235215
0.0034746
0.00328561
0.00227178
0.00294526
0.00345792
0.00298085
0.0033076
0.00400654
0.00390849
0.00348427
0.00332797
0.00335324
0.00338779
0.00332891
0.00310761
0.00280767
0.00260846
0.0025693
0.00195362
0.00233571
0.00339012
0.00334267
0.00232061
0.00287224
0.00350088
0.00304918
0.00320625
0.00392588
0.00391944
0.00341509
0.00315831
0.00318848
0.00324526
0.00316796
0.00292284
0.00261168
0.00241599
0.00239219
0.00204614
0.00232946
0.00330242
0.00338825
0.00238839
0.00279591
0.00351098
0.00312851
0.00312846
0.00382056
0.00391476
0.00337129
0.00300071
0.00300624
0.00309225
0.00301682
0.00275093
0.00242037
0.00221563
0.00221329
0.00213448
0.00233391
0.00321328
0.00341802
0.00247321
0.00272608
0.00348488
0.00320402
0.00307495
0.0037021
0.00388859
0.00334438
0.00286176
0.00281338
0.00292523
0.00287139
0.00259363
0.00224097
0.00201496
0.00202221
0.0022177
0.0023492
0.00312601
0.00342915
0.00256994
0.00267047
0.00342366
0.00326586
0.00304462
0.00358346
0.00384087
0.00332456
0.00274416
0.00261878
0.00274276
0.00272608
0.00245055
0.002076
0.00182443
0.00182276
0.00229502
0.00237471
0.00304442
0.00342025
0.00267066
0.00263446
0.00334316
0.00330169
0.00305248
0.00347394
0.00377631
0.0033058
0.00264734
0.00243013
0.00254675
0.00257516
0.002321
0.00192641
0.00164743
0.00162742
0.00236572
0.00240906
0.00297215
0.00339181
0.00276618
0.00262104
0.00325452
0.00330527
0.00304516
0.00337523
0.00370237
0.00328684
0.00256967
0.00225195
0.00234115
0.00241351
0.00220149
0.00179664
0.00148345
0.00144345
0.00242963
0.00245026
0.00291204
0.00334613
0.0028487
0.00262969
0.0031662
0.0032764
0.00302935
0.00328538
0.00362382
0.00326805
0.00251107
0.00208866
0.00213031
0.00223797
0.00208394
0.0016911
0.00133736
0.00126976
0.00248713
0.00249576
0.0028657
0.00328742
0.00291264
0.00265544
0.0030864
0.0032253
0.00299812
0.0031946
0.00354162
0.00325019
0.00247225
0.0019457
0.0019196
0.00204836
0.00195904
0.00160477
0.00121997
0.00110726
0.00253871
0.00254263
0.00283349
0.0032215
0.00295427
0.00269013
0.00302013
0.00316297
0.00295037
0.00309414
0.00345091
0.00323347
0.0024543
0.00182881
0.0017161
0.00184686
0.00182033
0.00152572
0.00113694
0.000966453
0.0025853
0.00258817
0.0028148
0.00315617
0.0029721
0.00272442
0.00296881
0.00309805
0.00289055
0.00298069
0.00334278
0.00321437
0.00245832
0.00174311
0.00152731
0.00163819
0.00166659
0.00144173
0.00108
0.000861408
0.00262761
0.00263074
0.0028073
0.00309531
0.00296709
0.00275059
0.00292977
0.00303773
0.00282771
0.00285476
0.0032093
0.00318173
0.00248277
0.00169463
0.00136185
0.00142821
0.00149933
0.00134577
0.00103559
0.000796322
0.00266605
0.00266943
0.00280719
0.00304196
0.00294723
0.00276301
0.00289678
0.00298421
0.00276951
0.00272503
0.00304969
0.00312144
0.00251952
0.00168801
0.00123092
0.00122355
0.00131983
0.00123632
0.000989641
0.00076321
0.00270126
0.00270365
0.00281066
0.00299722
0.00291866
0.0027597
0.00286349
0.0029371
0.00271967
0.00260441
0.00286901
0.00302224
0.0025498
0.00171951
0.00114775
0.00103639
0.00113101
0.00111241
0.000933734
0.00074605
0.00273351
0.00273339
0.00281456
0.00296056
0.00288636
0.00274147
0.00282466
0.00289182
0.00267909
0.00250091
0.002681
0.00288368
0.00255373
0.00177682
0.00111733
0.000885458
0.000941345
0.000973432
0.00086438
0.000728501
0.00276262
0.00275877
0.00281697
0.00292979
0.00285389
0.00271209
0.00277697
0.00284359
0.00264566
0.00241832
0.0025037
0.00271286
0.00251769
0.00183808
0.00113314
0.000785573
0.000767473
0.000823866
0.000781618
0.000702422
0.00278822
0.00278006
0.00281693
0.00290178
0.00282319
0.00267685
0.0027195
0.00278803
0.00261302
0.00235515
0.00234916
0.00252415
0.0024367
0.00188457
0.00118246
0.000738191
0.00062934
0.000674497
0.00068899
0.000668181
0.00280974
0.00279754
0.00281416
0.00287413
0.00279414
0.0026398
0.00265406
0.00272253
0.00257654
0.00230691
0.00222182
0.00233957
0.00231813
0.00189996
0.00124808
0.000737776
0.000538979
0.000543562
0.000591748
0.000629127
0.00282678
0.00281113
0.00280864
0.00284544
0.00276578
0.00260335
0.00258486
0.00264673
0.00253213
0.00226699
0.00211914
0.0021735
0.00217776
0.00187589
0.00131237
0.000776221
0.000497683
0.000447241
0.000500926
0.000587853
0.00283895
0.00282044
0.00280063
0.00281488
0.00273583
0.00256848
0.00251596
0.00256232
0.00247603
0.00222918
0.00203785
0.00202973
0.00203574
0.00182176
0.00135891
0.000840356
0.000502752
0.000395025
0.000431923
0.000550635
0.00284594
0.00282515
0.00279024
0.00278232
0.00270281
0.00253452
0.00244945
0.00247196
0.0024074
0.00218722
0.00197315
0.00190921
0.00190266
0.00175194
0.00138388
0.000915562
0.000550506
0.000391653
0.000399917
0.000529426
0.00284775
0.00282502
0.00277727
0.00274811
0.00266579
0.00249956
0.00238642
0.00237892
0.00232695
0.00213653
0.00191697
0.00181032
0.00178224
0.0016771
0.00139571
0.000993526
0.00063435
0.000440584
0.000418344
0.000541885
0.00284428
0.00281984
0.00276153
0.00271011
0.00262475
0.00246163
0.00232612
0.0022862
0.00223654
0.00207415
0.00186084
0.00172789
0.0016769
0.00160089
0.00140152
0.00107591
0.000748704
0.000544548
0.000500067
0.000610335
0.0028357
0.00280958
0.0027431
0.00267328
0.00258021
0.00241983
0.00226738
0.00219533
0.00213859
0.00199899
0.00179819
0.00165286
0.0015861
0.00152661
0.00140192
0.0011663
0.000893596
0.000707553
0.000660372
0.000762022
0.00282262
0.00279469
0.00272185
0.00263513
0.00253277
0.0023739
0.00220906
0.00210722
0.00203542
0.00191196
0.00172643
0.0015756
0.00150339
0.00145671
0.00139407
0.00126216
0.00107295
0.00093688
0.000916098
0.00102558
0.00280532
0.00277533
0.00269769
0.00259572
0.00248309
0.00232431
0.00215003
0.00202215
0.00193035
0.00181458
0.00164569
0.00149218
0.00141882
0.00138983
0.00137863
0.00135578
0.00128516
0.00123927
0.00128464
0.00142856
0.00278422
0.00275189
0.00267097
0.00255552
0.00243153
0.00227171
0.00209003
0.00193956
0.00182653
0.0017107
0.0015576
0.00140577
0.00133037
0.00132538
0.00136327
0.00144617
0.00152613
0.00161696
0.00177451
0.0019811
0.00276023
0.00272506
0.00264185
0.00251555
0.00237907
0.00221659
0.00202978
0.00185972
0.0017251
0.00160537
0.00146885
0.00133205
0.00126076
0.00128483
0.00138569
0.00157555
0.00181796
0.00204781
0.00226463
0.0024457
0.00273429
0.00269602
0.00261064
0.00247609
0.00232737
0.00216033
0.00197052
0.00178535
0.0016284
0.00150177
0.00138375
0.00128112
0.00124077
0.00130706
0.00147434
0.00173848
0.00206441
0.0023712
0.00261156
0.00276094
0.00270741
0.00266604
0.00257876
0.00243747
0.00227774
0.00210474
0.00191352
0.0017212
0.00154747
0.00140792
0.00130042
0.00123755
0.0012641
0.00140081
0.00163658
0.00194387
0.00227924
0.00257529
0.00278462
0.0028831
0.00268138
0.00263628
0.00254713
0.00240143
0.00223163
0.00205185
0.00185914
0.00166776
0.00149343
0.00135371
0.00124699
0.0011826
0.00121925
0.00139878
0.0017024
0.00209849
0.00251977
0.00289098
0.00313874
0.00322018
0.00265732
0.00260896
0.00251767
0.00236937
0.00219163
0.00200538
0.00180979
0.00161715
0.00144735
0.00133383
0.00129513
0.00131292
0.00138774
0.00154058
0.00175661
0.00202558
0.00234247
0.00265927
0.00290158
0.00300019
0.00263679
0.00258605
0.00249228
0.00234243
0.00216019
0.00196876
0.00177528
0.00158775
0.00141821
0.00128228
0.00120358
0.00121308
0.00131953
0.00154797
0.0018821
0.00227107
0.00266392
0.00300738
0.00324334
0.00330723
0.00262059
0.00256708
0.00247054
0.00231906
0.00213307
0.00193444
0.00173603
0.00154633
0.00138143
0.00126571
0.00122774
0.0012798
0.00141194
0.00162767
0.00192196
0.00225553
0.00259642
0.002905
0.0031257
0.0031914
0.0239205
0.0164837
0.00705259
0.000149201
-0.00211461
-0.0015357
-0.000633618
-0.000152946
3.59107e-05
9.78015e-05
4.65181e-05
-6.2995e-05
-0.000115078
-0.000165369
-0.000309325
-0.000439908
-0.000478415
-0.000502564
-0.000556495
-0.000635814
-0.000723323
-0.000781708
-0.000832297
-0.000918844
-0.00101395
-0.00109637
-0.00118694
-0.00126894
-0.00132424
-0.00137966
-0.00144533
-0.00149412
-0.00152582
-0.00156996
-0.00163079
-0.00168621
-0.00173951
-0.0018025
-0.0018662
-0.00192104
-0.00197496
-0.00204279
-0.00211716
-0.00218884
-0.00227078
-0.00236159
-0.00245247
-0.00255078
-0.00264996
-0.00275634
-0.00287178
-0.00298326
-0.00309579
-0.0032104
-0.00331305
-0.00340035
-0.00348038
-0.00356633
-0.00366511
-0.00376261
-0.00386001
-0.00396339
-0.0040776
-0.00419445
-0.00427851
-0.00433178
-0.00440074
-0.00449514
-0.00457444
-0.00465273
-0.004749
-0.00484757
-0.00493008
-0.00500936
-0.00509034
-0.00516516
-0.00523691
-0.00530567
-0.00537566
-0.00544242
-0.00551039
-0.0055755
-0.00564384
-0.00571094
-0.00577991
-0.00584886
-0.00591694
-0.00598742
-0.00605573
-0.00613055
-0.00620421
-0.00627893
-0.00635828
-0.00642952
-0.00651688
-0.00659642
-0.00669154
-0.00680104
-0.00691935
-0.00707923
0.0227
0.0162755
0.00712385
0.000300497
-0.0020151
-0.00148844
-0.000605319
-0.000133647
4.99121e-05
0.000108866
5.56405e-05
-5.54572e-05
-0.000108537
-0.000159435
-0.00030421
-0.000435587
-0.000474518
-0.000498989
-0.000553257
-0.000632878
-0.000720718
-0.000779357
-0.000830086
-0.000916821
-0.00101213
-0.00109468
-0.00118539
-0.00126754
-0.00132293
-0.00137841
-0.00144419
-0.00149307
-0.00152481
-0.001569
-0.00162989
-0.00168535
-0.00173868
-0.0018017
-0.00186544
-0.0019203
-0.00197424
-0.0020421
-0.0021165
-0.0021882
-0.00227016
-0.00236099
-0.0024519
-0.00255023
-0.00264944
-0.00275584
-0.0028713
-0.0029828
-0.00309536
-0.00320999
-0.00331267
-0.0034
-0.00348004
-0.00356601
-0.00366481
-0.00376233
-0.00385975
-0.00396315
-0.00407737
-0.00419425
-0.00427835
-0.00433162
-0.00440058
-0.00449501
-0.00457432
-0.00465262
-0.0047489
-0.00484748
-0.00493
-0.00500929
-0.00509028
-0.00516511
-0.00523686
-0.00530563
-0.00537562
-0.00544238
-0.00551036
-0.00557548
-0.00564382
-0.00571092
-0.00577989
-0.00584885
-0.00591693
-0.00598741
-0.00605572
-0.00613054
-0.0062042
-0.00627893
-0.00635828
-0.00642952
-0.00651687
-0.00659642
-0.00669153
-0.00680104
-0.00691936
-0.00707926
0.0216619
0.0160944
0.00728941
0.000588399
-0.0018394
-0.00142467
-0.000576994
-0.000112356
6.73162e-05
0.000122725
6.67227e-05
-4.6573e-05
-0.000101222
-0.000153177
-0.000298919
-0.000431081
-0.000470506
-0.000495444
-0.000550126
-0.000630052
-0.000718201
-0.000777079
-0.00082797
-0.000914927
-0.00101044
-0.00109311
-0.00118396
-0.00126628
-0.00132174
-0.00137729
-0.00144317
-0.00149213
-0.0015239
-0.00156813
-0.00162909
-0.0016846
-0.00173795
-0.00180101
-0.00186478
-0.00191967
-0.00197361
-0.00204149
-0.00211592
-0.00218764
-0.00226962
-0.00236048
-0.0024514
-0.00254975
-0.00264898
-0.0027554
-0.00287089
-0.00298241
-0.00309498
-0.00320964
-0.00331234
-0.00339969
-0.00347975
-0.00356572
-0.00366454
-0.00376208
-0.00385952
-0.00396293
-0.00407718
-0.00419409
-0.0042782
-0.00433148
-0.00440044
-0.00449489
-0.00457422
-0.00465251
-0.00474881
-0.00484741
-0.00492993
-0.00500923
-0.00509023
-0.00516506
-0.00523682
-0.00530559
-0.00537559
-0.00544235
-0.00551034
-0.00557545
-0.00564379
-0.0057109
-0.00577988
-0.00584884
-0.00591692
-0.0059874
-0.00605571
-0.00613054
-0.00620419
-0.00627892
-0.00635827
-0.00642951
-0.00651687
-0.00659642
-0.00669153
-0.00680104
-0.00691936
-0.00707932
0.0207167
0.0158959
0.00749358
0.000946228
-0.00160136
-0.00133524
-0.000536586
-8.04561e-05
9.37226e-05
0.000142866
8.23499e-05
-3.39876e-05
-9.12135e-05
-0.000145087
-0.000291875
-0.000424707
-0.000464967
-0.000490877
-0.000546232
-0.000626483
-0.000714921
-0.000774117
-0.000825313
-0.000912581
-0.00100833
-0.00109116
-0.00118223
-0.00126476
-0.00132036
-0.00137601
-0.001442
-0.00149103
-0.00152286
-0.00156716
-0.00162822
-0.0016838
-0.0017372
-0.00180031
-0.00186412
-0.00191902
-0.00197296
-0.00204086
-0.00211533
-0.00218706
-0.00226906
-0.00235996
-0.00245088
-0.00254925
-0.0026485
-0.00275493
-0.00287047
-0.002982
-0.00309458
-0.00320927
-0.003312
-0.00339937
-0.00347943
-0.00356541
-0.00366425
-0.0037618
-0.00385926
-0.0039627
-0.00407696
-0.0041939
-0.00427805
-0.00433132
-0.00440028
-0.00449475
-0.0045741
-0.0046524
-0.00474871
-0.00484733
-0.00492986
-0.00500916
-0.00509017
-0.00516501
-0.00523677
-0.00530555
-0.00537555
-0.00544232
-0.00551031
-0.00557543
-0.00564377
-0.00571088
-0.00577986
-0.00584882
-0.0059169
-0.00598738
-0.00605569
-0.00613053
-0.00620419
-0.00627891
-0.00635827
-0.00642951
-0.00651686
-0.00659641
-0.00669152
-0.00680103
-0.00691935
-0.0070794
0.0197899
0.0156529
0.00769857
0.00132118
-0.00134051
-0.00123391
-0.000490579
-4.12658e-05
0.000128311
0.000169721
0.000103495
-1.63961e-05
-7.7297e-05
-0.000134225
-0.000282142
-0.000415446
-0.000456997
-0.000484622
-0.000541084
-0.000621698
-0.000710357
-0.000769985
-0.000821675
-0.000909321
-0.00100533
-0.00108838
-0.00117977
-0.00126265
-0.00131853
-0.00137435
-0.00144045
-0.00148958
-0.00152152
-0.00156594
-0.00162714
-0.00168285
-0.00173636
-0.00179954
-0.00186339
-0.00191831
-0.00197227
-0.00204018
-0.00211467
-0.00218642
-0.00226846
-0.00235939
-0.00245031
-0.00254867
-0.00264794
-0.00275441
-0.00286999
-0.00298155
-0.00309414
-0.00320883
-0.00331158
-0.00339898
-0.00347907
-0.00356505
-0.0036639
-0.00376146
-0.00385894
-0.00396242
-0.00407671
-0.00419367
-0.00427784
-0.00433111
-0.00440007
-0.00449458
-0.00457394
-0.00465224
-0.00474858
-0.00484722
-0.00492976
-0.00500907
-0.00509009
-0.00516494
-0.00523671
-0.00530549
-0.0053755
-0.00544228
-0.00551027
-0.00557539
-0.00564374
-0.00571086
-0.00577983
-0.0058488
-0.00591689
-0.00598737
-0.00605568
-0.00613051
-0.00620418
-0.0062789
-0.00635826
-0.0064295
-0.00651685
-0.0065964
-0.0066915
-0.00680102
-0.00691933
-0.00707951
0.0188822
0.0153705
0.00789395
0.00169643
-0.00107045
-0.0011277
-0.000444774
-3.66679e-07
0.000166934
0.000200694
0.000128471
5.03102e-06
-6.01115e-05
-0.000120805
-0.00026977
-0.00040329
-0.000446483
-0.000476483
-0.000534507
-0.000615542
-0.000704354
-0.000764571
-0.000816963
-0.000904979
-0.00100118
-0.00108448
-0.00117622
-0.00125964
-0.00131606
-0.00137217
-0.00143836
-0.00148762
-0.00151976
-0.00156434
-0.0016257
-0.00168163
-0.00173536
-0.00179866
-0.00186257
-0.00191754
-0.00197153
-0.00203944
-0.00211393
-0.00218571
-0.0022678
-0.00235876
-0.00244965
-0.00254799
-0.00264727
-0.00275378
-0.00286943
-0.00298104
-0.00309362
-0.0032083
-0.00331106
-0.0033985
-0.00347863
-0.00356461
-0.00366344
-0.00376101
-0.00385853
-0.00396206
-0.00407637
-0.00419335
-0.00427754
-0.00433083
-0.0043998
-0.00449433
-0.00457371
-0.00465204
-0.00474841
-0.00484707
-0.00492963
-0.00500894
-0.00508999
-0.00516484
-0.00523662
-0.00530541
-0.00537543
-0.00544222
-0.00551022
-0.00557535
-0.0056437
-0.00571082
-0.0057798
-0.00584877
-0.00591686
-0.00598735
-0.00605566
-0.0061305
-0.00620416
-0.00627889
-0.00635825
-0.00642949
-0.00651684
-0.00659639
-0.00669148
-0.00680099
-0.00691929
-0.00707965
0.0180037
0.0150546
0.00807376
0.00206696
-0.000793
-0.00101636
-0.000399766
4.03916e-05
0.000207733
0.000234355
0.000155836
2.8702e-05
-4.0921e-05
-0.000105654
-0.000255554
-0.000389096
-0.000434074
-0.000466804
-0.000526672
-0.000608158
-0.000697072
-0.000758052
-0.00081134
-0.000899673
-0.00099593
-0.00107939
-0.00117144
-0.00125549
-0.00131272
-0.00136931
-0.00143562
-0.00148508
-0.00151752
-0.00156229
-0.0016238
-0.00168004
-0.0017341
-0.0017976
-0.0018616
-0.00191668
-0.00197075
-0.00203865
-0.00211313
-0.00218495
-0.00226711
-0.00235808
-0.0024489
-0.00254719
-0.00264645
-0.002753
-0.00286875
-0.00298043
-0.00309301
-0.00320764
-0.00331039
-0.0033979
-0.00347811
-0.00356407
-0.00366284
-0.00376039
-0.00385799
-0.00396161
-0.00407593
-0.0041929
-0.00427712
-0.00433044
-0.00439943
-0.00449398
-0.00457338
-0.00465174
-0.00474816
-0.00484685
-0.00492942
-0.00500876
-0.00508983
-0.0051647
-0.0052365
-0.0053053
-0.00537533
-0.00544213
-0.00551014
-0.00557528
-0.00564363
-0.00571076
-0.00577975
-0.00584873
-0.00591682
-0.00598732
-0.00605563
-0.00613047
-0.00620414
-0.00627887
-0.00635824
-0.00642947
-0.00651682
-0.00659637
-0.00669144
-0.00680093
-0.00691922
-0.00707982
0.0171608
0.0147065
0.00823252
0.0024313
-0.000506749
-0.000897396
-0.000354596
8.04745e-05
0.000250021
0.000270228
0.000184972
5.37728e-05
-2.04838e-05
-8.93939e-05
-0.000240239
-0.000373719
-0.000420498
-0.000456082
-0.000517916
-0.000599861
-0.00068885
-0.000750732
-0.000805086
-0.000893705
-0.000989887
-0.00107335
-0.00116555
-0.00125023
-0.00130847
-0.00136567
-0.00143217
-0.00148195
-0.00151483
-0.00155979
-0.00162141
-0.001678
-0.0017325
-0.00179625
-0.0018604
-0.00191569
-0.00196991
-0.00203781
-0.00211225
-0.00218414
-0.0022664
-0.00235737
-0.00244809
-0.00254625
-0.00264545
-0.00275203
-0.00286789
-0.00297967
-0.00309225
-0.00320681
-0.00330953
-0.00339716
-0.00347748
-0.00356341
-0.00366204
-0.00375955
-0.00385727
-0.00396104
-0.00407536
-0.00419227
-0.00427652
-0.00432991
-0.00439892
-0.00449346
-0.00457289
-0.00465132
-0.0047478
-0.00484652
-0.00492912
-0.00500849
-0.00508959
-0.00516449
-0.00523631
-0.00530513
-0.00537518
-0.00544199
-0.00551002
-0.00557517
-0.00564354
-0.00571068
-0.00577968
-0.00584867
-0.00591677
-0.00598727
-0.00605559
-0.00613043
-0.00620411
-0.00627884
-0.00635821
-0.00642945
-0.00651679
-0.00659635
-0.0066914
-0.00680084
-0.00691913
-0.00708002
0.0163572
0.0143286
0.00836706
0.00278923
-0.000210442
-0.000768974
-0.000308728
0.000119128
0.000293026
0.000307936
0.000215614
7.99247e-05
8.59574e-07
-7.23873e-05
-0.000224275
-0.000357649
-0.000406176
-0.000444636
-0.000508501
-0.000590928
-0.000679988
-0.00074285
-0.000798396
-0.000887322
-0.000983358
-0.00106671
-0.00115888
-0.00124411
-0.0013034
-0.0013613
-0.00142804
-0.00147828
-0.00151176
-0.00155695
-0.00161862
-0.00167557
-0.00173056
-0.00179458
-0.00185891
-0.0019145
-0.00196896
-0.00203688
-0.0021113
-0.00218329
-0.00226568
-0.00235667
-0.00244725
-0.00254523
-0.00264431
-0.00275087
-0.00286681
-0.0029787
-0.00309129
-0.00320574
-0.00330844
-0.00339625
-0.00347676
-0.00356264
-0.00366104
-0.00375843
-0.00385632
-0.00396029
-0.0040746
-0.00419143
-0.00427573
-0.00432925
-0.00439826
-0.00449276
-0.00457221
-0.00465073
-0.00474728
-0.00484603
-0.00492867
-0.0050081
-0.00508925
-0.00516418
-0.00523603
-0.00530488
-0.00537496
-0.00544179
-0.00550985
-0.00557502
-0.0056434
-0.00571056
-0.00577957
-0.00584858
-0.00591668
-0.00598719
-0.00605552
-0.00613038
-0.00620406
-0.0062788
-0.00635817
-0.00642942
-0.00651675
-0.0065963
-0.00669135
-0.00680072
-0.006919
-0.00708025
0.015596
0.0139259
0.00847526
0.00313926
9.54657e-05
-0.000630114
-0.000261812
0.000155561
0.0003359
0.000347194
0.000247765
0.000107134
2.29808e-05
-5.48141e-05
-0.000207855
-0.000341068
-0.000391263
-0.000432608
-0.000498572
-0.000581527
-0.000670653
-0.000734522
-0.000791336
-0.000880613
-0.000976493
-0.00105969
-0.00115174
-0.00123741
-0.00129773
-0.00135634
-0.00142335
-0.00147413
-0.00150837
-0.00155385
-0.00161555
-0.00167283
-0.00172831
-0.0017926
-0.00185713
-0.00191308
-0.00196787
-0.00203586
-0.00211026
-0.00218238
-0.00226493
-0.00235596
-0.00244642
-0.00254418
-0.00264309
-0.00274957
-0.00286553
-0.00297751
-0.00309007
-0.00320436
-0.00330706
-0.00339513
-0.00347594
-0.00356178
-0.00365986
-0.00375706
-0.0038551
-0.00395931
-0.00407362
-0.00419033
-0.00427473
-0.00432844
-0.00439746
-0.00449185
-0.00457132
-0.00464996
-0.00474656