/*--------------------------------*- C++ -*----------------------------------*\
| =========                 |                                                 |
| \\      /  F ield         | OpenFOAM: The Open Source CFD Toolbox           |
|  \\    /   O peration     | Version:  2106                                  |
|   \\  /    A nd           | Website:  www.openfoam.com                      |
|    \\/     M anipulation  |                                                 |
\*---------------------------------------------------------------------------*/
FoamFile
{
    version     2.0;
    format      ascii;
    arch        "LSB;label=32;scalar=64";
    class       surfaceScalarField;
    location    "0.71";
    object      phi;
}
// * * * * * * * * * * * * * * * * * * * * * * * * * * * * * * * * * * * * * //

dimensions      [0 3 -1 0 0 0 0];

oriented        oriented;

internalField   nonuniform List<scalar> 
19000
(
1.18431e-06
-6.23527e-07
1.16221e-06
8.21354e-08
1.16973e-06
1.14566e-07
1.15045e-06
3.26262e-07
1.1721e-06
-4.57966e-07
1.20734e-06
-4.222e-08
1.2208e-06
-4.8741e-07
1.21613e-06
3.79655e-07
1.2211e-06
2.29755e-08
1.20948e-06
4.80283e-07
1.2096e-06
1.69161e-07
1.19904e-06
9.49202e-08
1.20211e-06
-1.51381e-07
1.19517e-06
-1.74651e-07
1.19963e-06
-2.37913e-07
1.1944e-06
-1.09209e-07
1.20313e-06
-1.42923e-07
1.19668e-06
-8.72305e-08
1.20414e-06
-4.68222e-08
-1.57185e-07
1.16656e-06
1.24255e-06
-6.41815e-07
1.22195e-06
1.02736e-07
1.22822e-06
1.08297e-07
1.21392e-06
3.40561e-07
1.23429e-06
-4.78336e-07
1.26965e-06
-7.75829e-08
1.28435e-06
-5.02113e-07
1.28328e-06
3.80731e-07
1.28411e-06
2.21391e-08
1.28008e-06
4.84316e-07
1.27098e-06
1.78259e-07
1.26814e-06
9.77659e-08
1.25988e-06
-1.43126e-07
1.26097e-06
-1.75744e-07
1.25338e-06
-2.30319e-07
1.26299e-06
-1.18822e-07
1.25372e-06
-1.33645e-07
1.26798e-06
-1.01492e-07
1.25082e-06
-2.96615e-08
-1.55944e-07
1.24958e-06
1.30033e-06
-6.5936e-07
1.28928e-06
1.1378e-07
1.29135e-06
1.0623e-07
1.28363e-06
3.48279e-07
1.29798e-06
-4.92686e-07
1.33437e-06
-1.1397e-07
1.34724e-06
-5.14987e-07
1.35546e-06
3.72511e-07
1.34868e-06
2.89211e-08
1.35343e-06
4.79572e-07
1.33536e-06
1.96324e-07
1.33408e-06
9.90461e-08
1.3172e-06
-1.26241e-07
1.31909e-06
-1.77638e-07
1.30839e-06
-2.1962e-07
1.31836e-06
-1.28791e-07
1.31119e-06
-1.26478e-07
1.31997e-06
-1.10271e-07
1.31411e-06
-2.37981e-08
-1.42987e-07
1.30115e-06
1.35784e-06
-6.73102e-07
1.35897e-06
1.12652e-07
1.35747e-06
1.07736e-07
1.3542e-06
3.5155e-07
1.36066e-06
-4.99146e-07
1.39539e-06
-1.48699e-07
1.40709e-06
-5.26695e-07
1.42332e-06
3.56285e-07
1.41374e-06
3.8501e-08
1.4206e-06
4.7271e-07
1.40027e-06
2.16654e-07
1.39351e-06
1.05804e-07
1.37447e-06
-1.07202e-07
1.37171e-06
-1.74876e-07
1.36379e-06
-2.11702e-07
1.37063e-06
-1.35625e-07
1.36807e-06
-1.2392e-07
1.3734e-06
-1.15604e-07
1.37186e-06
-2.22549e-08
-1.28537e-07
1.35741e-06
1.41608e-06
-6.80824e-07
1.42777e-06
1.00955e-07
1.42491e-06
1.10604e-07
1.42282e-06
3.53638e-07
1.42223e-06
-4.9856e-07
1.45162e-06
-1.78088e-07
1.46389e-06
-5.38962e-07
1.48539e-06
3.34785e-07
1.4782e-06
4.56885e-08
1.48349e-06
4.67424e-07
1.46432e-06
2.35816e-07
1.45214e-06
1.17985e-07
1.43301e-06
-8.80715e-08
1.42699e-06
-1.68857e-07
1.42045e-06
-2.05162e-07
1.42626e-06
-1.41433e-07
1.42514e-06
-1.22798e-07
1.42959e-06
-1.20055e-07
1.42917e-06
-2.18288e-08
-1.14301e-07
1.41493e-06
1.47699e-06
-6.8214e-07
1.49478e-06
8.31704e-08
1.49298e-06
1.12402e-07
1.49005e-06
3.56571e-07
1.48478e-06
-4.93299e-07
1.50641e-06
-1.99712e-07
1.51961e-06
-5.52165e-07
1.54434e-06
3.10056e-07
1.54136e-06
4.86702e-08
1.54525e-06
4.6353e-07
1.52768e-06
2.53393e-07
1.51343e-06
1.32226e-07
1.49475e-06
-6.93897e-08
1.48778e-06
-1.61886e-07
1.48123e-06
-1.98613e-07
1.48641e-06
-1.46606e-07
1.48558e-06
-1.21975e-07
1.48873e-06
-1.23199e-07
1.48922e-06
-2.23232e-08
-9.96968e-08
1.47462e-06
1.54243e-06
-6.78357e-07
1.56127e-06
6.43343e-08
1.56183e-06
1.1184e-07
1.55829e-06
3.60111e-07
1.55067e-06
-4.85681e-07
1.56431e-06
-2.13348e-07
1.57679e-06
-5.64648e-07
1.60288e-06
2.83964e-07
1.60305e-06
4.8507e-08
1.60706e-06
4.59512e-07
1.59126e-06
2.69198e-07
1.57814e-06
1.45348e-07
1.56081e-06
-5.20655e-08
1.55421e-06
-1.55288e-07
1.54743e-06
-1.91826e-07
1.55155e-06
-1.5073e-07
1.55062e-06
-1.21046e-07
1.55183e-06
-1.2441e-07
1.55293e-06
-2.34233e-08
-8.4588e-08
1.53783e-06
1.61326e-06
-6.71492e-07
1.62943e-06
4.81722e-08
1.63217e-06
1.09099e-07
1.62973e-06
3.6255e-07
1.62129e-06
-4.77241e-07
1.62837e-06
-2.20433e-07
1.63762e-06
-5.73899e-07
1.66281e-06
2.58777e-07
1.66412e-06
4.72017e-08
1.66944e-06
4.54185e-07
1.65625e-06
2.82393e-07
1.64638e-06
1.55218e-07
1.63137e-06
-3.70602e-08
1.62582e-06
-1.49734e-07
1.61893e-06
-1.8494e-07
1.62174e-06
-1.5354e-07
1.6205e-06
-1.19801e-07
1.61949e-06
-1.23403e-07
1.62082e-06
-2.47521e-08
-6.91152e-08
1.60535e-06
1.68932e-06
-6.63235e-07
1.70111e-06
3.63785e-08
1.70505e-06
1.05164e-07
1.7054e-06
3.62193e-07
1.69692e-06
-4.68759e-07
1.69951e-06
-2.23019e-07
1.70362e-06
-5.78007e-07
1.72574e-06
2.36652e-07
1.72652e-06
4.64261e-08
1.73371e-06
4.46994e-07
1.72405e-06
2.9205e-07
1.71855e-06
1.60722e-07
1.70637e-06
-2.48793e-08
1.7021e-06
-1.45471e-07
1.69529e-06
-1.78131e-07
1.6967e-06
-1.54943e-07
1.69516e-06
-1.18263e-07
1.69195e-06
-1.20189e-07
1.6932e-06
-2.601e-08
-5.3605e-08
1.67769e-06
1.76998e-06
-6.54498e-07
1.77747e-06
2.88951e-08
1.78162e-06
1.01012e-07
1.78552e-06
3.58294e-07
1.77725e-06
-4.60494e-07
1.77722e-06
-2.22983e-07
1.77555e-06
-5.7634e-07
1.79344e-06
2.18761e-07
1.79278e-06
4.70883e-08
1.80195e-06
4.37826e-07
1.7962e-06
2.97792e-07
1.79523e-06
1.61694e-07
1.78581e-06
-1.54567e-08
1.78272e-06
-1.42382e-07
1.77614e-06
-1.7155e-07
1.77611e-06
-1.54911e-07
1.77444e-06
-1.16597e-07
1.76927e-06
-1.15022e-07
1.77021e-06
-2.69484e-08
-3.85325e-08
1.75514e-06
1.85477e-06
-6.45515e-07
1.85901e-06
2.46554e-08
1.8628e-06
9.72128e-08
1.86999e-06
3.51105e-07
1.86186e-06
-4.52362e-07
1.86056e-06
-2.21686e-07
1.85365e-06
-5.69426e-07
1.86743e-06
2.04977e-07
1.86515e-06
4.93735e-08
1.87617e-06
4.26805e-07
1.874e-06
2.99958e-07
1.87698e-06
1.58722e-07
1.86983e-06
-8.30971e-09
1.86753e-06
-1.40079e-07
1.86129e-06
-1.65311e-07
1.85979e-06
-1.53419e-07
1.85817e-06
-1.14976e-07
1.85146e-06
-1.08312e-07
1.85183e-06
-2.73121e-08
-2.44438e-08
1.83774e-06
1.94351e-06
-6.36184e-07
1.94586e-06
2.2306e-08
1.94912e-06
9.39541e-08
1.95881e-06
3.41415e-07
1.95051e-06
-4.44067e-07
1.94877e-06
-2.19949e-07
1.93778e-06
-5.58429e-07
1.94853e-06
1.94226e-07
1.94491e-06
5.29912e-08
1.95758e-06
4.14141e-07
1.95816e-06
2.99369e-07
1.96407e-06
1.52813e-07
1.95856e-06
-2.80146e-09
1.95652e-06
-1.38036e-07
1.9507e-06
-1.59488e-07
1.94775e-06
-1.50466e-07
1.94623e-06
-1.13461e-07
1.93847e-06
-1.00549e-07
1.938e-06
-2.68416e-08
-1.18308e-08
1.92538e-06
2.03634e-06
-6.26331e-07
2.03798e-06
2.06654e-08
2.0407e-06
9.12285e-08
2.05206e-06
3.30055e-07
2.04325e-06
-4.35252e-07
2.04148e-06
-2.18179e-07
2.02765e-06
-5.44602e-07
2.03676e-06
1.85121e-07
2.03228e-06
5.74635e-08
2.04637e-06
4.00053e-07
2.04879e-06
2.96952e-07
2.05655e-06
1.45054e-07
2.05212e-06
1.62417e-09
2.04982e-06
-1.3573e-07
2.04444e-06
-1.54117e-07
2.0401e-06
-1.46122e-07
2.03859e-06
-1.11949e-07
2.03028e-06
-9.2239e-08
2.02878e-06
-2.5343e-08
-9.87166e-10
2.01794e-06
2.1335e-06
-6.1583e-07
2.13526e-06
1.89025e-08
2.1375e-06
8.89945e-08
2.14993e-06
3.17627e-07
2.14029e-06
-4.25617e-07
2.13865e-06
-2.16535e-07
2.12299e-06
-5.28942e-07
2.13164e-06
1.76468e-07
2.12676e-06
6.23425e-08
2.14208e-06
3.84738e-07
2.14557e-06
2.93455e-07
2.15425e-06
1.36373e-07
2.15056e-06
5.32055e-09
2.14757e-06
-1.32739e-07
2.14265e-06
-1.49195e-07
2.13707e-06
-1.40547e-07
2.13534e-06
-1.10215e-07
2.12695e-06
-8.38492e-08
2.12434e-06
-2.27385e-08
8.04392e-09
2.11531e-06
2.23528e-06
-6.04622e-07
2.23766e-06
1.65263e-08
2.2394e-06
8.72464e-08
2.25257e-06
3.04458e-07
2.24194e-06
-4.14985e-07
2.24047e-06
-2.15064e-07
2.22363e-06
-5.12097e-07
2.2326e-06
1.67491e-07
2.22763e-06
6.73163e-08
2.24398e-06
3.68389e-07
2.2481e-06
2.89336e-07
2.25702e-06
1.27455e-07
2.25391e-06
8.42376e-09
2.24997e-06
-1.28799e-07
2.24546e-06
-1.44682e-07
2.2389e-06
-1.33992e-07
2.23666e-06
-1.07971e-07
2.22857e-06
-7.5759e-08
2.22492e-06
-1.90871e-08
1.54394e-08
2.21752e-06
2.34194e-06
-5.92682e-07
2.34517e-06
1.32917e-08
2.34639e-06
8.6023e-08
2.36019e-06
2.9066e-07
2.34851e-06
-4.033e-07
2.34723e-06
-2.13787e-07
2.32955e-06
-4.94421e-07
2.33922e-06
1.57827e-07
2.33432e-06
7.22154e-08
2.35149e-06
3.51216e-07
2.35604e-06
2.84786e-07
2.36474e-06
1.18758e-07
2.36224e-06
1.09174e-08
2.35725e-06
-1.23805e-07
2.35306e-06
-1.40486e-07
2.34584e-06
-1.26775e-07
2.34279e-06
-1.04927e-07
2.33529e-06
-6.8255e-08
2.33075e-06
-1.45475e-08
2.15052e-08
2.32468e-06
2.45372e-06
-5.80004e-07
2.45791e-06
9.09847e-09
2.45855e-06
8.53875e-08
2.47297e-06
2.76235e-07
2.46027e-06
-3.90598e-07
2.4592e-06
-2.12722e-07
2.44087e-06
-4.76091e-07
2.45129e-06
1.47406e-07
2.44655e-06
7.69631e-08
2.46431e-06
3.33456e-07
2.46928e-06
2.79811e-07
2.47746e-06
1.10575e-07
2.47566e-06
1.2724e-08
2.46966e-06
-1.17813e-07
2.46563e-06
-1.36455e-07
2.45809e-06
-1.19227e-07
2.45403e-06
-1.00874e-07
2.44726e-06
-6.14796e-08
2.44209e-06
-9.37429e-09
2.66131e-08
2.43698e-06
2.57087e-06
-5.6658e-07
2.57605e-06
3.9157e-09
2.57603e-06
8.5406e-08
2.59112e-06
2.61145e-07
2.57749e-06
-3.76963e-07
2.57665e-06
-2.11887e-07
2.55777e-06
-4.57204e-07
2.56884e-06
1.3633e-07
2.56429e-06
8.15132e-08
2.58238e-06
3.15373e-07
2.58787e-06
2.74318e-07
2.59536e-06
1.03081e-07
2.5943e-06
1.37914e-08
2.58748e-06
-1.10996e-07
2.58343e-06
-1.32404e-07
2.57584e-06
-1.11641e-07
2.57077e-06
-9.57996e-08
2.56463e-06
-5.53486e-08
2.55916e-06
-3.90336e-09
3.11366e-08
2.55464e-06
2.69365e-06
-5.52405e-07
2.69983e-06
-2.26064e-09
2.6991e-06
8.61329e-08
2.71488e-06
2.45366e-07
2.70042e-06
-3.62501e-07
2.69981e-06
-2.1128e-07
2.68046e-06
-4.37849e-07
2.69201e-06
1.24778e-07
2.68772e-06
8.5802e-08
2.70585e-06
2.97243e-07
2.71199e-06
2.68181e-07
2.71871e-06
9.6364e-08
2.71836e-06
1.41378e-08
2.71097e-06
-1.03607e-07
2.7067e-06
-1.28134e-07
2.69928e-06
-1.04221e-07
2.69332e-06
-8.98403e-08
2.68763e-06
-4.96535e-08
2.68219e-06
1.53015e-09
3.53747e-08
2.67796e-06
2.82234e-06
-5.37472e-07
2.8295e-06
-9.42597e-09
2.82803e-06
8.76023e-08
2.8445e-06
2.28898e-07
2.82932e-06
-3.47323e-07
2.82891e-06
-2.10872e-07
2.80921e-06
-4.18141e-07
2.82103e-06
1.12957e-07
2.8171e-06
8.97281e-08
2.83501e-06
2.79329e-07
2.8419e-06
2.61294e-07
2.84783e-06
9.04372e-08
2.84811e-06
1.386e-08
2.84041e-06
-9.59136e-08
2.83575e-06
-1.23476e-07
2.8286e-06
-9.70672e-08
2.82196e-06
-8.31977e-08
2.81651e-06
-4.42016e-08
2.81136e-06
6.67215e-09
3.95057e-08
2.80723e-06
2.9572e-06
-5.21778e-07
2.96535e-06
-1.75715e-08
2.96312e-06
8.9825e-08
2.98024e-06
2.1178e-07
2.96447e-06
-3.31552e-07
2.9642e-06
-2.10596e-07
2.94428e-06
-3.98229e-07
2.95615e-06
1.01087e-07
2.95273e-06
9.3151e-08
2.9702e-06
2.61863e-07
2.97788e-06
2.53611e-07
2.98308e-06
8.52385e-08
2.98382e-06
1.31144e-08
2.97606e-06
-8.81492e-08
2.97092e-06
-1.18339e-07
2.96402e-06
-9.01623e-08
2.9569e-06
-7.60846e-08
2.95157e-06
-3.88703e-08
2.94687e-06
1.13708e-08
4.35837e-08
2.9428e-06
3.09855e-06
-5.05322e-07
3.10766e-06
-2.66825e-08
3.1047e-06
9.27865e-08
3.1224e-06
1.94084e-07
3.10617e-06
-3.15324e-07
3.10592e-06
-2.10343e-07
3.08599e-06
-3.78303e-07
3.09769e-06
8.93877e-08
3.09493e-06
9.59106e-08
3.11177e-06
2.45019e-07
3.12022e-06
2.45168e-07
3.12482e-06
8.06334e-08
3.12584e-06
1.20911e-08
3.11817e-06
-8.04771e-08
3.11255e-06
-1.12719e-07
3.10581e-06
-8.34184e-08
3.09839e-06
-6.86708e-08
3.09314e-06
-3.36169e-08
3.08894e-06
1.55676e-08
4.75596e-08
3.08497e-06
3.2467e-06
-4.88111e-07
3.25675e-06
-3.67349e-08
3.25309e-06
9.64456e-08
3.27126e-06
1.75918e-07
3.25473e-06
-2.98796e-07
3.25435e-06
-2.09966e-07
3.23463e-06
-3.5858e-07
3.24594e-06
7.80746e-08
3.24398e-06
9.78711e-08
3.26012e-06
2.28884e-07
3.26921e-06
2.36079e-07
3.27339e-06
7.64539e-08
3.27452e-06
1.09602e-08
3.26701e-06
-7.29707e-08
3.26096e-06
-1.06673e-07
3.25431e-06
-7.67648e-08
3.24667e-06
-6.1033e-08
3.24152e-06
-2.84611e-08
3.23782e-06
1.92608e-08
5.13204e-08
3.23406e-06
3.40198e-06
-4.70158e-07
3.41294e-06
-4.76918e-08
3.40865e-06
1.00734e-07
3.42714e-06
1.57428e-07
3.41049e-06
-2.82151e-07
3.40981e-06
-2.09286e-07
3.39054e-06
-3.39303e-07
3.40126e-06
6.73536e-08
3.40019e-06
9.89397e-08
3.41561e-06
2.13463e-07
3.42518e-06
2.2651e-07
3.42909e-06
7.25411e-08
3.43021e-06
9.83765e-09
3.42287e-06
-6.56245e-08
3.41645e-06
-1.00254e-07
3.4099e-06
-7.02181e-08
3.40205e-06
-5.31837e-08
3.397e-06
-2.34074e-08
3.39381e-06
2.24486e-08
5.47369e-08
3.39039e-06
3.56474e-06
-4.51483e-07
3.57655e-06
-5.95013e-08
3.57173e-06
1.05554e-07
3.59036e-06
1.38793e-07
3.57381e-06
-2.65602e-07
3.57262e-06
-2.08094e-07
3.55404e-06
-3.20725e-07
3.56399e-06
5.74098e-08
3.56384e-06
9.90848e-08
3.57862e-06
1.9868e-07
3.58848e-06
2.16652e-07
3.59223e-06
6.87912e-08
3.59332e-06
8.75167e-09
3.58605e-06
-5.83538e-08
3.5793e-06
-9.35035e-08
3.57292e-06
-6.38406e-08
3.56491e-06
-4.5169e-08
3.55989e-06
-1.83948e-08
3.55722e-06
2.51201e-08
5.76854e-08
3.55427e-06
3.73534e-06
-4.32116e-07
3.74793e-06
-7.20934e-08
3.74271e-06
1.10777e-07
3.76127e-06
1.20229e-07
3.74506e-06
-2.49388e-07
3.74313e-06
-2.06163e-07
3.7255e-06
-3.03103e-07
3.73452e-06
4.83892e-08
3.73526e-06
9.83484e-08
3.74953e-06
1.84409e-07
3.7595e-06
2.06681e-07
3.76311e-06
6.51842e-08
3.76422e-06
7.64486e-09
3.75689e-06
-5.10255e-08
3.74981e-06
-8.64296e-08
3.7437e-06
-5.77313e-08
3.73564e-06
-3.71037e-08
3.73055e-06
-1.33078e-08
3.72838e-06
2.7295e-08
6.00478e-08
3.72601e-06
3.91417e-06
-4.12095e-07
3.92745e-06
-8.53789e-08
3.92199e-06
1.16244e-07
3.94023e-06
1.0199e-07
3.9246e-06
-2.33767e-07
3.9217e-06
-2.03262e-07
3.90526e-06
-2.8666e-07
3.91329e-06
4.03575e-08
3.9148e-06
9.68373e-08
3.92868e-06
1.70535e-07
3.93866e-06
1.96695e-07
3.94203e-06
6.18134e-08
3.94327e-06
6.41239e-09
3.9358e-06
-4.35558e-08
3.92834e-06
-7.89746e-08
3.92258e-06
-5.19731e-08
3.91467e-06
-2.91954e-08
3.90938e-06
-8.01814e-09
3.90761e-06
2.90728e-08
6.17134e-08
3.90594e-06
4.10162e-06
-3.91469e-07
4.11549e-06
-9.92467e-08
4.10998e-06
1.21758e-07
4.12761e-06
8.43577e-08
4.11285e-06
-2.19009e-07
4.10876e-06
-1.99173e-07
4.09364e-06
-2.71535e-07
4.10073e-06
3.3263e-08
4.10285e-06
9.47187e-08
4.11641e-06
1.56974e-07
4.12639e-06
1.86714e-07
4.12936e-06
5.88482e-08
4.13079e-06
4.97888e-09
4.12321e-06
-3.59776e-08
4.11529e-06
-7.10468e-08
4.10991e-06
-4.65957e-08
4.10241e-06
-2.16982e-08
4.09686e-06
-2.46252e-09
4.09528e-06
3.06532e-08
6.26139e-08
4.09438e-06
4.29813e-06
-3.70297e-07
4.31245e-06
-1.13563e-07
4.30711e-06
1.27097e-07
4.32383e-06
6.76342e-08
4.3102e-06
-2.05383e-07
4.30478e-06
-1.93745e-07
4.29099e-06
-2.57754e-07
4.29729e-06
2.69654e-08
4.29983e-06
9.21809e-08
4.31311e-06
1.43692e-07
4.32313e-06
1.76697e-07
4.32547e-06
5.65059e-08
4.3271e-06
3.354e-09
4.31957e-06
-2.84547e-08
4.3111e-06
-6.25684e-08
4.30607e-06
-4.15725e-08
4.29923e-06
-1.48531e-08
4.29346e-06
3.30778e-09
4.29183e-06
3.22799e-08
6.28046e-08
4.29164e-06
4.50413e-06
-3.48648e-07
4.51874e-06
-1.28174e-07
4.51382e-06
1.32016e-07
4.52933e-06
5.21253e-08
4.51708e-06
-1.93139e-07
4.51023e-06
-1.86888e-07
4.49771e-06
-2.45235e-07
4.50341e-06
2.12608e-08
4.50617e-06
8.94222e-08
4.51918e-06
1.30686e-07
4.52926e-06
1.66617e-07
4.53084e-06
5.49233e-08
4.53251e-06
1.6852e-09
4.52531e-06
-2.12614e-08
4.51625e-06
-5.35051e-08
4.5115e-06
-3.68195e-08
4.50547e-06
-8.82355e-09
4.49967e-06
9.10496e-09
4.49779e-06
3.41618e-08
6.24898e-08
4.4981e-06
4.72007e-06
-3.26604e-07
4.7348e-06
-1.42902e-07
4.73056e-06
1.36258e-07
4.74456e-06
3.81213e-08
4.73392e-06
-1.82498e-07
4.72562e-06
-1.78584e-07
4.71419e-06
-2.33808e-07
4.71954e-06
1.59073e-08
4.72232e-06
8.66415e-08
4.73503e-06
1.17979e-07
4.74518e-06
1.5647e-07
4.74594e-06
5.41597e-08
4.74746e-06
1.62234e-10
4.74088e-06
-1.46786e-08
4.73131e-06
-4.39372e-08
4.72662e-06
-3.21304e-08
4.72154e-06
-3.73855e-09
4.71593e-06
1.47149e-08
4.71372e-06
3.63732e-08
6.19776e-08
4.71423e-06
4.94645e-06
-3.04257e-07
4.9611e-06
-1.57554e-07
4.95778e-06
1.39578e-07
4.97003e-06
2.58691e-08
4.96113e-06
-1.73597e-07
4.95146e-06
-1.68915e-07
4.9409e-06
-2.23239e-07
4.94615e-06
1.06562e-08
4.94875e-06
8.40355e-08
4.96112e-06
1.05615e-07
4.97132e-06
1.46269e-07
4.97124e-06
5.42394e-08
4.97245e-06
-1.04847e-09
4.96676e-06
-8.98972e-09
4.95683e-06
-3.40072e-08
4.95197e-06
-2.72676e-08
4.94783e-06
4.00243e-10
4.94265e-06
1.98924e-08
4.94015e-06
3.8871e-08
6.15402e-08
4.94059e-06
5.18377e-06
-2.81709e-07
5.19814e-06
-1.71927e-07
5.19595e-06
1.41766e-07
5.20629e-06
1.55315e-08
5.19917e-06
-1.66474e-07
5.1883e-06
-1.58048e-07
5.17831e-06
-2.13247e-07
5.1837e-06
5.26992e-09
5.18597e-06
8.17628e-08
5.19789e-06
9.36909e-08
5.20815e-06
1.36011e-07
5.20723e-06
5.51592e-08
5.20798e-06
-1.8011e-09
5.20342e-06
-4.42134e-09
5.19339e-06
-2.39795e-08
5.1881e-06
-2.19833e-08
5.18478e-06
3.72833e-09
5.18028e-06
2.43902e-08
5.1776e-06
4.15497e-08
6.13267e-08
5.17781e-06
5.43255e-06
-2.59073e-07
5.44644e-06
-1.85816e-07
5.44554e-06
1.42664e-07
5.45392e-06
7.1586e-09
5.4485e-06
-1.6106e-07
5.43668e-06
-1.46225e-07
5.42695e-06
-2.03518e-07
5.43268e-06
-4.55682e-10
5.43451e-06
7.99282e-08
5.44583e-06
8.23708e-08
5.45629e-06
1.25548e-07
5.45448e-06
5.69718e-08
5.45454e-06
-1.86317e-09
5.45133e-06
-1.20536e-09
5.44157e-06
-1.42205e-08
5.43563e-06
-1.60478e-08
5.43288e-06
6.47732e-09
5.42924e-06
2.80374e-08
5.42655e-06
4.42342e-08
6.13745e-08
5.4265e-06
5.69336e-06
-2.36473e-07
5.70656e-06
-1.99018e-07
5.70705e-06
1.42171e-07
5.7135e-06
7.07387e-10
5.70966e-06
-1.57213e-07
5.69716e-06
-1.33723e-07
5.68736e-06
-1.93719e-07
5.6936e-06
-6.69488e-09
5.69493e-06
7.85945e-08
5.70538e-06
7.19155e-08
5.71629e-06
1.14639e-07
5.71371e-06
5.95513e-08
5.71274e-06
-8.86111e-10
5.71091e-06
6.21097e-10
5.7019e-06
-5.2129e-09
5.69522e-06
-9.36862e-09
5.69273e-06
8.97305e-09
5.68998e-06
3.07902e-08
5.68752e-06
4.66953e-08
6.16484e-08
5.68724e-06
5.96676e-06
-2.14041e-07
5.97908e-06
-2.11333e-07
5.981e-06
1.40247e-07
5.98564e-06
-3.92779e-09
5.98317e-06
-1.54749e-07
5.97031e-06
-1.20861e-07
5.9601e-06
-1.83514e-07
5.96701e-06
-1.36016e-08
5.96781e-06
7.77953e-08
5.97705e-06
6.26791e-08
5.98861e-06
1.03077e-07
5.98571e-06
6.2452e-08
5.98332e-06
1.50512e-09
5.98262e-06
1.31299e-09
5.97487e-06
2.54537e-09
5.96758e-06
-2.0859e-09
5.96495e-06
1.16091e-08
5.96301e-06
3.2732e-08
5.96098e-06
4.87169e-08
6.20367e-08
5.9606e-06
6.25337e-06
-1.9192e-07
6.2646e-06
-2.22567e-07
6.26795e-06
1.36902e-07
6.27088e-06
-6.8633e-09
6.26963e-06
-1.53498e-07
6.25675e-06
-1.07977e-07
6.24584e-06
-1.72602e-07
6.25346e-06
-2.12283e-08
6.25386e-06
7.73968e-08
6.26129e-06
5.52533e-08
6.27366e-06
9.0701e-08
6.27108e-06
6.50348e-08
6.2671e-06
5.48411e-09
6.26695e-06
1.46845e-09
6.26091e-06
8.58539e-09
6.25336e-06
5.45627e-09
6.25025e-06
1.47186e-08
6.24891e-06
3.40727e-08
6.24748e-06
5.0154e-08
6.23782e-08
6.24713e-06
6.55381e-06
-1.70264e-07
6.56376e-06
-2.32511e-07
6.56852e-06
1.32141e-07
6.56979e-06
-8.13717e-09
6.56967e-06
-1.53375e-07
6.55714e-06
-9.54452e-08
6.5452e-06
-1.60661e-07
6.55349e-06
-2.95271e-08
6.55381e-06
7.70804e-08
6.55874e-06
5.03198e-08
6.57182e-06
7.76226e-08
6.57043e-06
6.64273e-08
6.56492e-06
1.09982e-08
6.5646e-06
1.78262e-09
6.5604e-06
1.27914e-08
6.55317e-06
1.26805e-08
6.54942e-06
1.84736e-08
6.54837e-06
3.51149e-08
6.54755e-06
5.09758e-08
6.25141e-08
6.54742e-06
6.86877e-06
-1.49241e-07
6.87717e-06
-2.40918e-07
6.88345e-06
1.25864e-07
6.88299e-06
-7.67282e-09
6.88392e-06
-1.54305e-07
6.87212e-06
-8.36499e-08
6.85884e-06
-1.47376e-07
6.86763e-06
-3.83215e-08
6.86842e-06
7.62899e-08
6.87048e-06
4.82642e-08
6.88364e-06
6.44609e-08
6.8842e-06
6.58645e-08
6.87761e-06
1.75933e-08
6.87642e-06
2.97198e-09
6.87387e-06
1.53365e-08
6.86749e-06
1.90634e-08
6.8632e-06
2.27617e-08
6.86212e-06
3.61939e-08
6.86184e-06
5.12596e-08
6.23438e-08
6.86201e-06
7.19893e-06
-1.29033e-07
7.20551e-06
-2.47498e-07
7.21352e-06
1.17854e-07
7.21117e-06
-5.32648e-09
7.21304e-06
-1.56175e-07
7.20245e-06
-7.30558e-08
7.18749e-06
-1.32418e-07
7.19643e-06
-4.72659e-08
7.19843e-06
7.42924e-08
7.19766e-06
4.90328e-08
7.20982e-06
5.22997e-08
7.21282e-06
6.28679e-08
7.20594e-06
2.44769e-08
7.20337e-06
5.53711e-09
7.20193e-06
1.67767e-08
7.19685e-06
2.4144e-08
7.19231e-06
2.7302e-08
7.19096e-06
3.75471e-08
7.19103e-06
5.11826e-08
6.18381e-08
7.19154e-06
7.54502e-06
-1.09831e-07
7.54945e-06
-2.51925e-07
7.55945e-06
1.07859e-07
7.55511e-06
-9.88035e-10
7.55769e-06
-1.58755e-07
7.54884e-06
-6.421e-08
7.53201e-06
-1.15589e-07
7.54051e-06
-5.5765e-08
7.54452e-06
7.02878e-08
7.54128e-06
5.2267e-08
7.5513e-06
4.22802e-08
7.55674e-06
5.74328e-08
7.55047e-06
3.07451e-08
7.54643e-06
9.57598e-09
7.54542e-06
1.77886e-08
7.54175e-06
2.78139e-08
7.53741e-06
3.16395e-08
7.5357e-06
3.92538e-08
7.53592e-06
5.09716e-08
6.10236e-08
7.53673e-06
7.90781e-06
-9.18347e-08
7.90977e-06
-2.53882e-07
7.92196e-06
9.567e-08
7.91565e-06
5.32664e-09
7.91846e-06
-1.61569e-07
7.91199e-06
-5.77427e-08
7.89342e-06
-9.70161e-08
7.90054e-06
-6.28838e-08
7.90715e-06
6.36747e-08
7.90228e-06
5.71347e-08
7.90916e-06
3.54063e-08
7.91646e-06
5.01291e-08
7.91174e-06
3.54637e-08
7.90652e-06
1.47992e-08
7.90527e-06
1.90394e-08
7.90284e-06
3.0238e-08
7.89913e-06
3.53499e-08
7.89716e-06
4.1231e-08
7.89731e-06
5.08171e-08
5.99587e-08
7.89838e-06
8.28809e-06
-7.52398e-08
8.28728e-06
-2.53071e-07
8.30177e-06
8.11751e-08
8.29364e-06
1.34562e-08
8.29596e-06
-1.63887e-07
8.29255e-06
-5.43298e-08
8.27265e-06
-7.71236e-08
8.27728e-06
-6.75072e-08
8.28673e-06
5.42265e-08
8.28142e-06
6.24402e-08
8.28462e-06
3.22097e-08
8.29271e-06
4.20385e-08
8.29023e-06
3.79467e-08
8.28443e-06
2.05929e-08
8.28249e-06
2.09789e-08
8.28095e-06
3.1781e-08
8.27811e-06
3.81933e-08
8.2761e-06
4.3235e-08
8.27607e-06
5.08497e-08
5.87384e-08
8.27729e-06
8.68665e-06
-6.02288e-08
8.68287e-06
-2.49286e-07
8.69957e-06
6.44738e-08
8.69006e-06
2.29649e-08
8.69091e-06
-1.64736e-07
8.69112e-06
-5.45383e-08
8.67069e-06
-5.66945e-08
8.67171e-06
-6.85311e-08
8.68376e-06
4.2176e-08
8.67928e-06
6.69177e-08
8.67894e-06
3.25516e-08
8.6865e-06
3.44778e-08
8.68643e-06
3.80205e-08
8.68089e-06
2.61261e-08
8.67809e-06
2.3782e-08
8.67697e-06
3.28988e-08
8.67503e-06
4.0133e-08
8.6733e-06
4.49667e-08
8.67308e-06
5.10722e-08
5.7518e-08
8.6743e-06
9.10435e-06
-4.69591e-08
9.09747e-06
-2.42402e-07
9.11606e-06
4.58747e-08
9.10599e-06
3.30402e-08
9.10423e-06
-1.62975e-07
9.10822e-06
-5.85319e-08
9.0885e-06
-3.69772e-08
9.08513e-06
-6.51593e-08
9.09871e-06
2.85968e-08
9.09643e-06
6.92036e-08
9.09327e-06
3.57077e-08
9.09904e-06
2.87084e-08
9.10104e-06
3.6024e-08
9.09655e-06
3.06139e-08
9.09304e-06
2.72904e-08
9.09192e-06
3.40178e-08
9.09074e-06
4.13102e-08
9.08952e-06
4.61928e-08
9.08924e-06
5.13481e-08
5.64592e-08
9.0903e-06
9.54204e-06
-3.55411e-08
9.53212e-06
-2.3248e-07
9.55204e-06
2.59552e-08
9.54253e-06
4.25527e-08
9.53709e-06
-1.57541e-07
9.54439e-06
-6.58268e-08
9.52696e-06
-1.95526e-08
9.51898e-06
-5.71729e-08
9.53241e-06
1.51611e-08
9.53331e-06
6.83048e-08
9.52842e-06
4.05971e-08
9.53173e-06
2.54049e-08
9.53498e-06
3.27718e-08
9.53202e-06
3.3573e-08
9.52824e-06
3.10652e-08
9.52684e-06
3.54264e-08
9.52615e-06
4.19935e-08
9.52553e-06
4.68119e-08
9.52543e-06
5.14502e-08
5.56155e-08
9.52628e-06
1.00006e-05
-2.60359e-08
9.98789e-06
-2.19739e-07
1.00084e-05
5.47469e-09
1.00006e-05
5.02833e-08
9.99086e-06
-1.47761e-07
1.00003e-05
-7.5308e-08
9.98681e-06
-6.01839e-09
9.97479e-06
-4.5162e-08
9.98607e-06
3.88458e-09
9.9904e-06
6.39743e-08
9.98518e-06
4.58229e-08
9.9859e-06
2.468e-08
9.98936e-06
2.9313e-08
9.98806e-06
3.48723e-08
9.98456e-06
3.45676e-08
9.9828e-06
3.71851e-08
9.98232e-06
4.24698e-08
9.98221e-06
4.69197e-08
9.98251e-06
5.11544e-08
5.48659e-08
9.98326e-06
1.04811e-05
-1.84489e-08
1.04658e-05
-2.04517e-07
1.04861e-05
-1.4777e-08
1.04811e-05
5.52998e-08
1.0467e-05
-1.3371e-07
1.04769e-05
-8.52422e-08
1.04686e-05
2.32182e-09
1.04539e-05
-3.04639e-08
1.04614e-05
-3.56452e-09
1.04684e-05
5.68949e-08
1.04642e-05
5.00928e-08
1.04627e-05
2.61684e-08
1.04655e-05
2.65189e-08
1.04656e-05
3.47258e-08
1.04628e-05
3.73718e-08
1.04609e-05
3.91468e-08
1.04604e-05
4.29357e-08
1.04606e-05
4.67314e-08
1.04613e-05
5.03902e-08
5.39705e-08
1.04622e-05
1.09843e-05
-1.27212e-08
1.09671e-05
-1.87294e-07
1.09863e-05
-3.39785e-08
1.09846e-05
5.6996e-08
1.0967e-05
-1.1618e-07
1.09755e-05
-9.36759e-08
1.09727e-05
5.10445e-09
1.09573e-05
-1.50532e-08
1.09602e-05
-6.47393e-09
1.09686e-05
4.85063e-08
1.0966e-05
5.26523e-08
1.09631e-05
2.91036e-08
1.09647e-05
2.49006e-08
1.09658e-05
3.36443e-08
1.09639e-05
3.92137e-08
1.0962e-05
4.10933e-08
1.09615e-05
4.3453e-08
1.09618e-05
4.64026e-08
1.09629e-05
4.93359e-08
5.26669e-08
1.09642e-05
1.15114e-05
-8.71878e-09
1.14927e-05
-1.6868e-07
1.151e-05
-5.12651e-08
1.1512e-05
5.50585e-08
1.14923e-05
-9.65341e-08
1.14974e-05
-9.87138e-08
1.14995e-05
2.92638e-09
1.14856e-05
-1.12181e-09
1.14843e-05
-5.15806e-09
1.14922e-05
4.05892e-08
1.14916e-05
5.32946e-08
1.1488e-05
3.26369e-08
1.14884e-05
2.45835e-08
1.14898e-05
3.2222e-08
1.1489e-05
4.00115e-08
1.14873e-05
4.28068e-08
1.14867e-05
4.40588e-08
1.14871e-05
4.59593e-08
1.14882e-05
4.82139e-08
5.09463e-08
1.14899e-05
1.20633e-05
-6.23151e-09
1.2044e-05
-1.49343e-07
1.20586e-05
-6.5855e-08
1.20641e-05
4.95529e-08
1.20439e-05
-7.63443e-08
1.20443e-05
-9.911e-08
1.20501e-05
-2.85048e-09
1.20394e-05
9.57304e-09
1.20349e-05
-6.54534e-10
1.20411e-05
3.44003e-08
1.20419e-05
5.24926e-08
1.20384e-05
3.60842e-08
1.20376e-05
2.53939e-08
1.20389e-05
3.08995e-08
1.2039e-05
3.99167e-08
1.20378e-05
4.40383e-08
1.20371e-05
4.47876e-08
1.20376e-05
4.54477e-08
1.20387e-05
4.70486e-08
4.90814e-08
1.20406e-05
1.26413e-05
-4.98196e-09
1.2622e-05
-1.30012e-07
1.26333e-05
-7.70971e-08
1.26419e-05
4.09086e-08
1.26226e-05
-5.70907e-08
1.26183e-05
-9.47631e-08
1.26256e-05
-1.01508e-08
1.2619e-05
1.62017e-08
1.2613e-05
5.29036e-09
1.26168e-05
3.05809e-08
1.26183e-05
5.10462e-08
1.26152e-05
3.91418e-08
1.26136e-05
2.69923e-08
1.26146e-05
2.99254e-08
1.26153e-05
3.9215e-08
1.26147e-05
4.46136e-08
1.2614e-05
4.55159e-08
1.26144e-05
4.50593e-08
1.26157e-05
4.57119e-08
4.72885e-08
1.26175e-05
1.32466e-05
-4.64122e-09
1.32281e-05
-1.11504e-07
1.32354e-05
-8.44573e-08
1.32465e-05
2.98258e-08
1.32294e-05
-3.99984e-08
1.32212e-05
-8.65073e-08
1.32278e-05
-1.67611e-08
1.32252e-05
1.87665e-08
1.32195e-05
1.09818e-08
1.3221e-05
2.91025e-08
1.32224e-05
4.96708e-08
1.32197e-05
4.18698e-08
1.32176e-05
2.90524e-08
1.32181e-05
2.94039e-08
1.32192e-05
3.81401e-08
1.32192e-05
4.45834e-08
1.32188e-05
4.59483e-08
1.32189e-05
4.4951e-08
1.32203e-05
4.42722e-08
4.54582e-08
1.32222e-05
1.38804e-05
-4.86026e-09
1.38634e-05
-9.45557e-08
1.38667e-05
-8.76891e-08
1.38791e-05
1.73543e-08
1.38653e-05
-2.61203e-08
1.38541e-05
-7.53796e-08
1.38587e-05
-2.13141e-08
1.38592e-05
1.83011e-08
1.38549e-05
1.5261e-08
1.3855e-05
2.89835e-08
1.38557e-05
4.89872e-08
1.38531e-05
4.44317e-08
1.38507e-05
3.14388e-08
1.38508e-05
2.93197e-08
1.38521e-05
3.68464e-08
1.38526e-05
4.40618e-08
1.38526e-05
4.59342e-08
1.38526e-05
4.49452e-08
1.38539e-05
4.30459e-08
4.34146e-08
1.38559e-05
1.45441e-05
-5.31256e-09
1.45292e-05
-7.96861e-08
1.45285e-05
-8.69469e-08
1.45411e-05
4.75751e-09
1.45311e-05
-1.61314e-08
1.45184e-05
-6.26359e-08
1.45203e-05
-2.32153e-08
1.45222e-05
1.63309e-08
1.45198e-05
1.76668e-08
1.45198e-05
2.90002e-08
1.45198e-05
4.90144e-08
1.45171e-05
4.71361e-08
1.45144e-05
3.41655e-08
1.4514e-05
2.96507e-08
1.45154e-05
3.54637e-08
1.45164e-05
4.30687e-08
1.45168e-05
4.55687e-08
1.4517e-05
4.47099e-08
1.45178e-05
4.22504e-08
4.12513e-08
1.452e-05
1.52393e-05
-5.73262e-09
1.52268e-05
-6.71562e-08
1.52227e-05
-8.28592e-08
1.52341e-05
-6.62874e-09
1.52281e-05
-1.01166e-08
1.5215e-05
-4.96237e-08
1.52142e-05
-2.24056e-08
1.52163e-05
1.4224e-08
1.52156e-05
1.84345e-08
1.52162e-05
2.83862e-08
1.52162e-05
4.89968e-08
1.52131e-05
5.01984e-08
1.521e-05
3.72815e-08
1.52092e-05
3.04593e-08
1.52106e-05
3.41069e-08
1.5212e-05
4.15939e-08
1.52127e-05
4.48882e-08
1.52133e-05
4.41842e-08
1.52138e-05
4.17013e-08
3.93369e-08
1.52157e-05
1.59676e-05
-5.96277e-09
1.59573e-05
-5.68964e-08
1.59509e-05
-7.64783e-08
1.59599e-05
-1.55767e-08
1.59573e-05
-7.54598e-09
1.59453e-05
-3.76716e-08
1.59421e-05
-1.9197e-08
1.59435e-05
1.28135e-08
1.59435e-05
1.8474e-08
1.59451e-05
2.68108e-08
1.5946e-05
4.80967e-08
1.59429e-05
5.32931e-08
1.59393e-05
4.0899e-08
1.59379e-05
3.18163e-08
1.59391e-05
3.29243e-08
1.5941e-05
3.97052e-08
1.59421e-05
4.3787e-08
1.59429e-05
4.34009e-08
1.59435e-05
4.11117e-08
3.79213e-08
1.59449e-05
1.67306e-05
-5.94217e-09
1.67223e-05
-4.85816e-08
1.67147e-05
-6.89058e-08
1.67205e-05
-2.13948e-08
1.67203e-05
-7.37634e-09
1.67104e-05
-2.76905e-08
1.67055e-05
-1.43552e-08
1.67058e-05
1.25086e-08
1.67056e-05
1.87155e-08
1.67078e-05
2.45472e-08
1.67101e-05
4.58533e-08
1.67078e-05
5.5547e-08
1.67038e-05
4.49746e-08
1.67018e-05
3.37996e-08
1.67026e-05
3.20977e-08
1.67047e-05
3.7572e-08
1.67063e-05
4.21837e-08
1.67074e-05
4.23308e-08
1.67082e-05
4.0293e-08
3.6955e-08
1.67092e-05
1.75301e-05
-5.66983e-09
1.75233e-05
-4.1829e-08
1.75154e-05
-6.09476e-08
1.75182e-05
-2.42206e-08
1.75189e-05
-8.08668e-09
1.75114e-05
-2.01355e-08
1.7506e-05
-8.97312e-09
1.75049e-05
1.35505e-08
1.75041e-05
1.95639e-08
1.75061e-05
2.25655e-08
1.75098e-05
4.21636e-08
1.75091e-05
5.61567e-08
1.75051e-05
4.90327e-08
1.75025e-05
3.64192e-08
1.75027e-05
3.18578e-08
1.75049e-05
3.53535e-08
1.7507e-05
4.01407e-08
1.75083e-05
4.09839e-08
1.75095e-05
3.91381e-08
3.61831e-08
1.75102e-05
1.83679e-05
-5.19658e-09
1.83623e-05
-3.62208e-08
1.83545e-05
-5.31574e-08
1.83547e-05
-2.44955e-08
1.83552e-05
-8.57023e-09
1.83498e-05
-1.47431e-08
1.83448e-05
-3.93036e-09
1.83427e-05
1.56121e-08
1.83412e-05
2.10903e-08
1.8342e-05
2.17404e-08
1.83466e-05
3.75677e-08
1.83481e-05
5.47111e-08
1.83449e-05
5.22462e-08
1.83417e-05
3.95956e-08
1.83411e-05
3.23945e-08
1.83432e-05
3.33201e-08
1.83456e-05
3.77645e-08
1.83472e-05
3.93523e-08
1.83486e-05
3.77301e-08