/*--------------------------------*- C++ -*----------------------------------*\
| =========                 |                                                 |
| \\      /  F ield         | OpenFOAM: The Open Source CFD Toolbox           |
|  \\    /   O peration     | Version:  2106                                  |
|   \\  /    A nd           | Website:  www.openfoam.com                      |
|    \\/     M anipulation  |                                                 |
\*---------------------------------------------------------------------------*/
FoamFile
{
    version     2.0;
    format      ascii;
    arch        "LSB;label=32;scalar=64";
    class       volVectorField;
    location    "0.75";
    object      U;
}
// * * * * * * * * * * * * * * * * * * * * * * * * * * * * * * * * * * * * * //

dimensions      [0 1 -1 0 0 0 0];

internalField   nonuniform List<vector> 
9600
(
(0.837129 -0.0049411 0)
(1.16132 0.00872749 0)
(0.880711 -0.00878161 0)
(1.14119 0.00348611 0)
(0.893618 -0.00682171 0)
(1.15339 -0.0019535 0)
(0.919273 0.00238304 0)
(1.10702 0.00395286 0)
(0.91793 0.00572601 0)
(1.10448 -0.00642726 0)
(0.898389 0.00406711 0)
(1.1314 -0.00882108 0)
(0.882601 -0.00361269 0)
(1.16352 -0.00721976 0)
(0.876438 -0.00704204 0)
(1.1745 -0.00321441 0)
(0.894718 -0.00297401 0)
(1.16559 9.98786e-05 0)
(0.895874 0.00188106 0)
(1.16196 0.00412521 0)
(0.849916 -0.00501107 0)
(1.15194 0.00857143 0)
(0.899489 -0.00876607 0)
(1.13154 0.00353081 0)
(0.915749 -0.00709227 0)
(1.14199 -0.00203065 0)
(0.938696 0.0026641 0)
(1.09379 0.00417937 0)
(0.942764 0.0055443 0)
(1.08186 -0.00585626 0)
(0.928509 0.00333763 0)
(1.09566 -0.00824072 0)
(0.921893 -0.00463422 0)
(1.11471 -0.006909 0)
(0.9318 -0.0075541 0)
(1.11271 -0.00366959 0)
(0.969451 -0.00262967 0)
(1.08416 -0.000140636 0)
(0.998851 0.00318498 0)
(1.04493 0.0030728 0)
(0.872363 -0.00510288 0)
(1.13266 0.00834332 0)
(0.923831 -0.00871964 0)
(1.1113 0.00349131 0)
(0.945452 -0.00731792 0)
(1.11737 -0.00210121 0)
(0.970306 0.00305856 0)
(1.07277 0.00428106 0)
(0.978415 0.00558703 0)
(1.05325 -0.00556335 0)
(0.968099 0.00301423 0)
(1.05696 -0.00803764 0)
(0.96762 -0.00501671 0)
(1.06373 -0.00711645 0)
(0.985511 -0.00743677 0)
(1.0585 -0.00452113 0)
(1.01793 -0.00207375 0)
(1.04406 -0.000850639 0)
(1.03099 0.00361465 0)
(1.03199 0.00385285 0)
(0.900284 -0.00519257 0)
(1.1065 0.00808378 0)
(0.947048 -0.00862948 0)
(1.08396 0.00335466 0)
(0.971841 -0.00742155 0)
(1.08472 -0.00225845 0)
(0.999557 0.00339728 0)
(1.05268 0.00427644 0)
(1.00783 0.00577807 0)
(1.03029 -0.00534994 0)
(0.997485 0.0029295 0)
(1.02977 -0.00796485 0)
(0.995339 -0.00508058 0)
(1.03185 -0.00747344 0)
(1.00992 -0.00731456 0)
(1.03353 -0.00523268 0)
(1.03042 -0.00191623 0)
(1.03726 -0.00107143 0)
(1.03531 0.00372277 0)
(1.03694 0.00464679 0)
(0.9287 -0.00527323 0)
(1.07845 0.00782522 0)
(0.965378 -0.00849113 0)
(1.0557 0.00315845 0)
(0.989133 -0.0074341 0)
(1.05271 -0.00250579 0)
(1.01698 0.00359648 0)
(1.038 0.00424363 0)
(1.0237 0.00603259 0)
(1.01648 -0.00513233 0)
(1.01152 0.00290794 0)
(1.01472 -0.00783587 0)
(1.00492 -0.00509039 0)
(1.01532 -0.00778061 0)
(1.01364 -0.00731867 0)
(1.02253 -0.00576101 0)
(1.0282 -0.00206738 0)
(1.03401 -0.00127348 0)
(1.03541 0.00369657 0)
(1.03745 0.00517323 0)
(0.953294 -0.00534145 0)
(1.0533 0.00760952 0)
(0.9778 -0.00831769 0)
(1.03195 0.00294317 0)
(0.997227 -0.00739385 0)
(1.02764 -0.00278486 0)
(1.02187 0.00363153 0)
(1.02808 0.00420548 0)
(1.02792 0.00629416 0)
(1.00942 -0.0049016 0)
(1.01483 0.00291198 0)
(1.00706 -0.00764388 0)
(1.0055 -0.00508943 0)
(1.006 -0.00797635 0)
(1.00968 -0.00741675 0)
(1.01434 -0.00619446 0)
(1.02162 -0.00238423 0)
(1.02749 -0.00155574 0)
(1.03195 0.00350026 0)
(1.0347 0.00552912 0)
(0.971691 -0.00539382 0)
(1.03378 0.00745754 0)
(0.985435 -0.00812992 0)
(1.01525 0.0027436 0)
(0.999408 -0.00732272 0)
(1.01116 -0.00304444 0)
(1.01874 0.00353063 0)
(1.02058 0.00415383 0)
(1.02555 0.00652342 0)
(1.00586 -0.00466967 0)
(1.01332 0.00293016 0)
(1.0033 -0.00742623 0)
(1.00365 -0.00504253 0)
(1.00033 -0.00809553 0)
(1.00459 -0.00752334 0)
(1.00718 -0.00655352 0)
(1.01395 -0.00278238 0)
(1.01943 -0.00184522 0)
(1.02532 0.00312019 0)
(1.0294 0.0057314 0)
(0.983713 -0.00542796 0)
(1.02028 0.00736078 0)
(0.990155 -0.00794387 0)
(1.00531 0.00257609 0)
(0.999203 -0.00723342 0)
(1.0017 -0.00325512 0)
(1.0125 0.00335629 0)
(1.01415 0.00407973 0)
(1.02066 0.00669607 0)
(1.00383 -0.00445285 0)
(1.01057 0.00294169 0)
(1.00175 -0.00720261 0)
(1.00202 -0.00496388 0)
(0.997301 -0.00814121 0)
(1.00054 -0.00758442 0)
(1.0016 -0.00683358 0)
(1.00681 -0.00317771 0)
(1.01152 -0.00208047 0)
(1.01735 0.0025979 0)
(1.02224 0.00578341 0)
(0.990663 -0.00544216 0)
(1.01164 0.00729487 0)
(0.993421 -0.00776906 0)
(1.00028 0.00243796 0)
(0.998688 -0.00713013 0)
(0.99681 -0.00340842 0)
(1.00622 0.00316741 0)
(1.00856 0.00398156 0)
(1.01549 0.0068014 0)
(1.00253 -0.00426594 0)
(1.00794 0.00293094 0)
(1.00144 -0.00698632 0)
(1.00108 -0.00487594 0)
(0.99619 -0.00810578 0)
(0.997914 -0.00760753 0)
(0.997735 -0.00699165 0)
(1.00098 -0.00353072 0)
(1.00455 -0.00223175 0)
(1.00945 0.00202647 0)
(1.01427 0.00576191 0)
(0.9943 -0.00543536 0)
(1.00631 0.00723453 0)
(0.995942 -0.00760988 0)
(0.998109 0.0023204 0)
(0.998495 -0.00701246 0)
(0.994514 -0.00350415 0)
(1.00112 0.00299916 0)
(1.00396 0.00386345 0)
(1.01095 0.00683868 0)
(1.00167 -0.00411212 0)
(1.00569 0.00288874 0)
(1.00173 -0.0067888 0)
(1.00058 -0.00479008 0)
(0.996193 -0.0080025 0)
(0.996448 -0.00759917 0)
(0.995272 -0.00700414 0)
(0.996631 -0.00382704 0)
(0.998848 -0.00228459 0)
(1.00238 0.00150614 0)
(1.00643 0.00571986 0)
(0.996101 -0.00540822 0)
(1.00304 0.00716267 0)
(0.997902 -0.00746521 0)
(0.99727 0.00221605 0)
(0.99854 -0.00688021 0)
(0.993549 -0.00354854 0)
(0.9974 0.0028651 0)
(1.00047 0.00373173 0)
(1.00732 0.0068145 0)
(1.00117 -0.00398569 0)
(1.00378 0.00281118 0)
(1.00216 -0.00660798 0)
(1.00022 -0.00471689 0)
(0.996613 -0.00784977 0)
(0.995733 -0.00756034 0)
(0.993765 -0.00688577 0)
(0.993638 -0.00406464 0)
(0.994485 -0.0022136 0)
(0.996558 0.00110777 0)
(0.999456 0.00566158 0)
(0.997004 -0.00536329 0)
(1.00102 0.00707247 0)
(0.999319 -0.0073295 0)
(0.996901 0.00211923 0)
(0.998619 -0.00673456 0)
(0.993218 -0.00355355 0)
(0.99489 0.00276568 0)
(0.998049 0.00359181 0)
(1.00463 0.00673946 0)
(1.00094 -0.00387767 0)
(1.00222 0.00270192 0)
(1.00248 -0.0064375 0)
(0.999854 -0.00466384 0)
(0.996995 -0.00765793 0)
(0.995423 -0.00750268 0)
(0.992838 -0.00666634 0)
(0.991745 -0.00423258 0)
(0.99141 -0.0020307 0)
(0.992212 0.000861774 0)
(0.993889 0.00558565 0)
(0.997489 -0.00530391 0)
(0.999796 0.00696383 0)
(1.00024 -0.00719568 0)
(0.996647 0.00202498 0)
(0.998623 -0.00657691 0)
(0.993176 -0.00353369 0)
(0.993347 0.00269523 0)
(0.996553 0.00344622 0)
(1.00279 0.00662494 0)
(1.00088 -0.00377796 0)
(1.00103 0.0025685 0)
(1.00261 -0.00627216 0)
(0.999488 -0.00463338 0)
(0.997154 -0.00742897 0)
(0.995287 -0.00744494 0)
(0.992248 -0.0063694 0)
(0.990666 -0.0043375 0)
(0.98946 -0.00177128 0)
(0.989325 0.000782439 0)
(0.989992 0.00549616 0)
(0.997769 -0.00523321 0)
(0.999101 0.0068389 0)
(1.00076 -0.00705732 0)
(0.996424 0.00192941 0)
(0.998547 -0.00640859 0)
(0.99326 -0.00350118 0)
(0.992522 0.0026465 0)
(0.995767 0.00329502 0)
(1.00166 0.00648248 0)
(1.00091 -0.00367976 0)
(1.00024 0.00242047 0)
(1.00257 -0.00610005 0)
(0.999167 -0.00462526 0)
(0.997094 -0.0071661 0)
(0.995205 -0.00739862 0)
(0.991864 -0.00601409 0)
(0.990125 -0.00439793 0)
(0.988393 -0.00148427 0)
(0.987673 0.000863516 0)
(0.987686 0.00539388 0)
(0.997935 -0.00515361 0)
(0.998738 0.00669987 0)
(1.00102 -0.0069097 0)
(0.996244 0.00182957 0)
(0.998427 -0.00622975 0)
(0.9934 -0.00346616 0)
(0.992183 0.0026128 0)
(0.99546 0.00313754 0)
(1.00104 0.00632204 0)
(1.00096 -0.00357919 0)
(0.999783 0.00226175 0)
(1.00243 -0.00591102 0)
(0.998923 -0.00463996 0)
(0.996908 -0.006873 0)
(0.995132 -0.00736123 0)
(0.991626 -0.0056311 0)
(0.989902 -0.0044083 0)
(0.987937 -0.00121182 0)
(0.986918 0.00108454 0)
(0.986633 0.00528626 0)
(0.998036 -0.00506659 0)
(0.998567 0.00654799 0)
(1.00112 -0.00674986 0)
(0.996121 0.00172283 0)
(0.998296 -0.00603951 0)
(0.993564 -0.00343564 0)
(0.992136 0.00258859 0)
(0.995431 0.00297479 0)
(1.00074 0.0061489 0)
(1.00101 -0.00347261 0)
(0.999554 0.00208971 0)
(1.00224 -0.00570047 0)
(0.998758 -0.00467794 0)
(0.996692 -0.00655028 0)
(0.995068 -0.00732696 0)
(0.991505 -0.00524607 0)
(0.989856 -0.00435545 0)
(0.987859 -0.000995912 0)
(0.986727 0.00140026 0)
(0.986407 0.00518136 0)
(0.998102 -0.00497281 0)
(0.998492 0.00638351 0)
(1.00113 -0.00657608 0)
(0.996052 0.00160725 0)
(0.998177 -0.00583698 0)
(0.993737 -0.00341352 0)
(0.992236 0.00257113 0)
(0.995532 0.00280572 0)
(1.00059 0.0059685 0)
(1.00103 -0.00335561 0)
(0.999455 0.00190559 0)
(1.00204 -0.00545893 0)
(0.998658 -0.00473631 0)
(0.9965 -0.00620169 0)
(0.995029 -0.00728777 0)
(0.99148 -0.00487525 0)
(0.98991 -0.00423287 0)
(0.987996 -0.000848977 0)
(0.986845 0.00175735 0)
(0.986635 0.00508878 0)
(0.998153 -0.00487251 0)
(0.998458 0.00620639 0)
(1.00111 -0.00638797 0)
(0.996024 0.00148196 0)
(0.998075 -0.00562192 0)
(0.993917 -0.00340053 0)
(0.992395 0.00255874 0)
(0.995674 0.00263138 0)
(1.0005 0.00578264 0)
(1.00102 -0.00322533 0)
(0.999414 0.00170669 0)
(1.00185 -0.00518791 0)
(0.998605 -0.00481049 0)
(0.996351 -0.00583495 0)
(0.995026 -0.00723388 0)
(0.991534 -0.00453618 0)
(0.990026 -0.00403056 0)
(0.988252 -0.000747597 0)
(0.987117 0.00211764 0)
(0.987064 0.00502768 0)
(0.9982 -0.00476562 0)
(0.998438 0.0060163 0)
(1.00107 -0.00618557 0)
(0.996022 0.00134647 0)
(0.997989 -0.00539373 0)
(0.994101 -0.00339789 0)
(0.992569 0.00254914 0)
(0.995816 0.00245497 0)
(1.00041 0.0055873 0)
(1.00099 -0.00308302 0)
(0.999392 0.00149193 0)
(1.00167 -0.00489641 0)
(0.998585 -0.0048937 0)
(0.996242 -0.00546352 0)
(0.995061 -0.00715022 0)
(0.991651 -0.0042451 0)
(0.990185 -0.00374971 0)
(0.988575 -0.000693454 0)
(0.987458 0.00243983 0)
(0.987553 0.00501639 0)
(0.998247 -0.0046519 0)
(0.99842 0.00581275 0)
(1.00103 -0.00596873 0)
(0.996035 0.00120026 0)
(0.997913 -0.005152 0)
(0.99429 -0.00340563 0)
(0.99274 0.00254273 0)
(0.995944 0.0022778 0)
(1.00031 0.00537783 0)
(1.00093 -0.00292444 0)
(0.999373 0.00125679 0)
(1.00149 -0.00458307 0)
(0.998587 -0.00498098 0)
(0.996162 -0.00510084 0)
(0.995125 -0.00701966 0)
(0.99182 -0.00401511 0)
(0.990371 -0.00340793 0)
(0.988939 -0.000670413 0)
(0.987839 0.00269661 0)
(0.988039 0.00506292 0)
(0.998296 -0.00453138 0)
(0.998402 0.00559601 0)
(1.00098 -0.00573771 0)
(0.996058 0.00104375 0)
(0.997844 -0.004898 0)
(0.994484 -0.00342063 0)
(0.992907 0.00253899 0)
(0.996059 0.00210127 0)
(1.0002 0.00515498 0)
(1.00086 -0.00274378 0)
(0.999355 0.00100273 0)
(1.00131 -0.00425221 0)
(0.998603 -0.00506374 0)
(0.996104 -0.00475708 0)
(0.995205 -0.00683507 0)
(0.99203 -0.00383875 0)
(0.990576 -0.00302295 0)
(0.989329 -0.000643898 0)
(0.988249 0.00287572 0)
(0.988503 0.00515257 0)
(0.998347 -0.00440388 0)
(0.998385 0.00536573 0)
(1.00093 -0.00549264 0)
(0.996088 0.000877575 0)
(0.997779 -0.00463242 0)
(0.994683 -0.00344175 0)
(0.993072 0.00253412 0)
(0.996163 0.00193016 0)
(1.00008 0.00491785 0)
(1.00078 -0.00254558 0)
(0.999337 0.000741036 0)
(1.00113 -0.0039161 0)
(0.998626 -0.00512679 0)
(0.996065 -0.00444527 0)
(0.995292 -0.00659539 0)
(0.992274 -0.00370087 0)
(0.990795 -0.00261594 0)
(0.989731 -0.00059608 0)
(0.988687 0.00297334 0)
(0.988944 0.00526037 0)
(0.998399 -0.00426922 0)
(0.998371 0.00512199 0)
(1.00089 -0.0052347 0)
(0.996124 0.000702823 0)
(0.997716 -0.0043568 0)
(0.994885 -0.00346662 0)
(0.993236 0.0025246 0)
(0.996261 0.00177047 0)
(0.999964 0.00466009 0)
(1.00068 -0.00233251 0)
(0.999321 0.000467144 0)
(1.00094 -0.00358554 0)
(0.998654 -0.00516137 0)
(0.996042 -0.00417243 0)
(0.995379 -0.00630328 0)
(0.992544 -0.00359074 0)
(0.991026 -0.00220971 0)
(0.990135 -0.000498896 0)
(0.98915 0.00299977 0)
(0.989369 0.00536407 0)
(0.998451 -0.0041277 0)
(0.998361 0.00486571 0)
(1.00084 -0.00496431 0)
(0.996164 0.000520496 0)
(0.997656 -0.00407281 0)
(0.995091 -0.00349348 0)
(0.993403 0.00250777 0)
(0.996355 0.00162607 0)
(0.999851 0.00437886 0)
(1.00058 -0.00210537 0)
(0.999308 0.000191591 0)
(1.00076 -0.00326985 0)
(0.998681 -0.00515935 0)
(0.996038 -0.00393895 0)
(0.995464 -0.00595675 0)
(0.992836 -0.00350228 0)
(0.991272 -0.00182253 0)
(0.990531 -0.000356421 0)
(0.989635 0.00296878 0)
(0.989788 0.00544132 0)
(0.998505 -0.00397942 0)
(0.998355 0.00459722 0)
(1.00078 -0.00468248 0)
(0.99621 0.000333947 0)
(0.997597 -0.00378477 0)
(0.995301 -0.00351611 0)
(0.993573 0.00248044 0)
(0.996444 0.00149883 0)
(0.999747 0.00407823 0)
(1.00047 -0.00186932 0)
(0.999297 -8.12911e-05 0)
(1.00058 -0.00297793 0)
(0.998707 -0.00511312 0)
(0.996052 -0.00374275 0)
(0.995544 -0.00556056 0)
(0.993144 -0.00342202 0)
(0.991534 -0.00146768 0)
(0.990916 -0.000181055 0)
(0.990135 0.00290067 0)
(0.99021 0.00547398 0)
(0.998559 -0.0038242 0)
(0.998354 0.00431698 0)
(1.00073 -0.00439229 0)
(0.99626 0.000146401 0)
(0.997541 -0.0034921 0)
(0.995513 -0.00353576 0)
(0.993747 0.00243611 0)
(0.996529 0.00139215 0)
(0.999651 0.00376179 0)
(1.00035 -0.00163144 0)
(0.999289 -0.000342371 0)
(1.00041 -0.00271639 0)
(0.998729 -0.00502212 0)
(0.996088 -0.00358261 0)
(0.995621 -0.00513392 0)
(0.993462 -0.00332953 0)
(0.991816 -0.00115815 0)
(0.991286 4.30359e-05 0)
(0.990644 0.00282276 0)
(0.99064 0.00545512 0)
(0.998614 -0.00366285 0)
(0.998358 0.00402665 0)
(1.00068 -0.00409512 0)
(0.996314 -4.28607e-05 0)
(0.997488 -0.00319942 0)
(0.995728 -0.0035473 0)
(0.993929 0.00237264 0)
(0.99661 0.00130901 0)
(0.999566 0.00342927 0)
(1.00023 -0.0013984 0)
(0.999281 -0.000572999 0)
(1.00024 -0.00248631 0)
(0.998746 -0.00488983 0)
(0.996144 -0.00345397 0)
(0.995698 -0.00469278 0)
(0.993786 -0.0032118 0)
(0.992121 -0.000903563 0)
(0.991644 0.000296922 0)
(0.991152 0.00275311 0)
(0.991082 0.00538803 0)
(0.998669 -0.00349608 0)
(0.99837 0.00372851 0)
(1.00063 -0.00379383 0)
(0.996372 -0.000230195 0)
(0.997438 -0.00291298 0)
(0.995944 -0.00354246 0)
(0.994118 0.00228526 0)
(0.996685 0.00124644 0)
(0.999492 0.00308723 0)
(1.00011 -0.00117546 0)
(0.999274 -0.000776325 0)
(1.00008 -0.00228764 0)
(0.998757 -0.00471644 0)
(0.99622 -0.00333992 0)
(0.995779 -0.00424704 0)
(0.99411 -0.00306251 0)
(0.99245 -0.000696759 0)
(0.991994 0.000553046 0)
(0.991652 0.00269939 0)
(0.991538 0.00527537 0)
(0.998726 -0.00332372 0)
(0.998388 0.00342294 0)
(1.00058 -0.00349311 0)
(0.996434 -0.00040878 0)
(0.997391 -0.00263507 0)
(0.996159 -0.00352281 0)
(0.994315 0.00217367 0)
(0.996755 0.00120102 0)
(0.999429 0.00274351 0)
(0.999993 -0.000969939 0)
(0.999265 -0.000945906 0)
(0.999931 -0.00211691 0)
(0.998762 -0.00450408 0)
(0.996316 -0.00323298 0)
(0.995864 -0.00380855 0)
(0.994429 -0.00287644 0)
(0.992802 -0.000535646 0)
(0.992338 0.000799178 0)
(0.992138 0.00266901 0)
(0.992009 0.00511974 0)
(0.998782 -0.0031463 0)
(0.998413 0.00311097 0)
(1.00053 -0.00319747 0)
(0.996501 -0.000574613 0)
(0.997348 -0.00236987 0)
(0.996373 -0.00348071 0)
(0.994521 0.00204032 0)
(0.99682 0.00117425 0)
(0.999375 0.00239784 0)
(0.999877 -0.000783691 0)
(0.999256 -0.00108157 0)
(0.999795 -0.00197543 0)
(0.998761 -0.00425537 0)
(0.996429 -0.00312895 0)
(0.995959 -0.00339366 0)
(0.99474 -0.00265261 0)
(0.993173 -0.000408512 0)
(0.992683 0.00102043 0)
(0.992606 0.00266821 0)
(0.992491 0.00493238 0)
(0.998839 -0.00296633 0)
(0.998446 0.00279837 0)
(1.00049 -0.0029117 0)
(0.996572 -0.00071959 0)
(0.99731 -0.00212144 0)
(0.996584 -0.00341232 0)
(0.994737 0.00188178 0)
(0.996879 0.00116208 0)
(0.999331 0.00205985 0)
(0.999766 -0.000620482 0)
(0.999244 -0.00118215 0)
(0.999675 -0.00186711 0)
(0.998757 -0.00397313 0)
(0.996555 -0.00301683 0)
(0.996065 -0.00300912 0)
(0.995041 -0.00240168 0)
(0.993557 -0.000300024 0)
(0.993034 0.00120316 0)
(0.993053 0.00269337 0)
(0.992979 0.00473488 0)
(0.998897 -0.0027834 0)
(0.998486 0.00248609 0)
(1.00045 -0.00264085 0)
(0.996647 -0.000840682 0)
(0.997277 -0.00189431 0)
(0.996789 -0.00332169 0)
(0.994961 0.00170437 0)
(0.996935 0.00115484 0)
(0.999295 0.00173922 0)
(0.999663 -0.00048676 0)
(0.99923 -0.00123973 0)
(0.999571 -0.00178232 0)
(0.998751 -0.00366886 0)
(0.996692 -0.00288788 0)
(0.996185 -0.00266569 0)
(0.995331 -0.00213497 0)
(0.99395 -0.000202803 0)
(0.993393 0.00134206 0)
(0.99348 0.00273214 0)
(0.993465 0.00454945 0)
(0.998954 -0.00259821 0)
(0.998533 0.00217657 0)
(1.00041 -0.00238915 0)
(0.996727 -0.000937442 0)
(0.997251 -0.00168583 0)
(0.99699 -0.00321206 0)
(0.995194 0.00151482 0)
(0.996988 0.00115003 0)
(0.999264 0.00143854 0)
(0.99957 -0.000382164 0)
(0.999213 -0.00126068 0)
(0.999485 -0.00171139 0)
(0.998747 -0.00335667 0)
(0.996835 -0.00273787 0)
(0.996319 -0.00235971 0)
(0.995612 -0.00186173 0)
(0.994345 -0.000106166 0)
(0.993761 0.0014388 0)
(0.993892 0.00276544 0)
(0.993941 0.00438549 0)
(0.999012 -0.00241438 0)
(0.998588 0.0018761 0)
(1.00038 -0.00215997 0)
(0.996812 -0.00100273 0)
(0.997231 -0.001499 0)
(0.997184 -0.00308368 0)
(0.995434 0.00132121 0)
(0.997037 0.00113994 0)
(0.999239 0.00116263 0)
(0.999487 -0.000302504 0)
(0.999195 -0.00125125 0)
(0.999416 -0.00164488 0)
(0.998747 -0.0030428 0)
(0.996982 -0.00257153 0)
(0.996466 -0.00208507 0)
(0.995884 -0.00159811 0)
(0.994737 -1.38702e-06 0)
(0.994136 0.00150895 0)
(0.994293 0.00277929 0)
(0.994403 0.00424004 0)
(0.99907 -0.00223072 0)
(0.998649 0.00158464 0)
(1.00036 -0.00195698 0)
(0.996901 -0.00103943 0)
(0.997219 -0.00133549 0)
(0.997373 -0.00293968 0)
(0.995681 0.00112717 0)
(0.997086 0.00112575 0)
(0.999217 0.000910734 0)
(0.999415 -0.000249074 0)
(0.999175 -0.00120866 0)
(0.999363 -0.00158338 0)
(0.998753 -0.00273494 0)
(0.997129 -0.0023842 0)
(0.996626 -0.00184376 0)
(0.996153 -0.00134882 0)
(0.995125 0.00012037 0)
(0.994515 0.00157785 0)
(0.994686 0.00277344 0)
(0.994849 0.00410431 0)
(0.999128 -0.00204979 0)
(0.998715 0.00130713 0)
(1.00035 -0.00177875 0)
(0.996995 -0.00105282 0)
(0.997213 -0.00119039 0)
(0.997555 -0.00278528 0)
(0.995934 0.000938432 0)
(0.997134 0.00110387 0)
(0.999198 0.000688507 0)
(0.999357 -0.000215777 0)
(0.999154 -0.00114106 0)
(0.999325 -0.00152669 0)
(0.998767 -0.00244183 0)
(0.997276 -0.00217417 0)
(0.996795 -0.00162605 0)
(0.996421 -0.00111294 0)
(0.995509 0.000243717 0)
(0.994891 0.00165593 0)
(0.995067 0.00275986 0)
(0.995279 0.00396666 0)
(0.999186 -0.00187431 0)
(0.998787 0.0010484 0)
(1.00034 -0.00162455 0)
(0.997092 -0.00104468 0)
(0.997214 -0.00105971 0)
(0.99773 -0.00262821 0)
(0.996191 0.000763021 0)
(0.997184 0.00107005 0)
(0.999183 0.00049671 0)
(0.999312 -0.000194898 0)
(0.999133 -0.00105717 0)
(0.999301 -0.0014696 0)
(0.998793 -0.00217062 0)
(0.99742 -0.00194876 0)
(0.996971 -0.00141854 0)
(0.996689 -0.000900265 0)
(0.995893 0.000350357 0)
(0.995265 0.00173543 0)
(0.995432 0.00275786 0)
(0.99569 0.00382975 0)
(0.999243 -0.00170317 0)
(0.998862 0.000810039 0)
(1.00035 -0.00149643 0)
(0.997195 -0.00102026 0)
(0.997221 -0.00094122 0)
(0.997898 -0.00247038 0)
(0.996453 0.000600646 0)
(0.997236 0.00103194 0)
(0.999171 0.000333738 0)
(0.999282 -0.000184775 0)
(0.999112 -0.000955745 0)
(0.999288 -0.00140712 0)
(0.998833 -0.00193252 0)
(0.997563 -0.0017105 0)
(0.997149 -0.00121118 0)
(0.996955 -0.000711742 0)
(0.996277 0.000442107 0)
(0.995642 0.00179827 0)
(0.99578 0.00277261 0)
(0.996077 0.00370448 0)
(0.999301 -0.00154057 0)
(0.998941 0.000597256 0)
(1.00037 -0.00139307 0)
(0.997303 -0.000981489 0)
(0.997236 -0.000831447 0)
(0.998061 -0.00231467 0)
(0.996717 0.000452918 0)
(0.997292 0.00099259 0)
(0.999163 0.000198933 0)
(0.999268 -0.000180941 0)
(0.999093 -0.00083701 0)
(0.999283 -0.00134145 0)
(0.998888 -0.00172872 0)
(0.997709 -0.00146668 0)
(0.997326 -0.0010062 0)
(0.997215 -0.000538412 0)
(0.996661 0.000521472 0)
(0.996026 0.001836 0)
(0.996116 0.00279774 0)
(0.996435 0.00360702 0)
(0.999358 -0.00138644 0)
(0.999021 0.000411901 0)
(1.00039 -0.00131668 0)
(0.997418 -0.000933408 0)
(0.997256 -0.000726476 0)
(0.998216 -0.00216848 0)
(0.996983 0.000323137 0)
(0.997352 0.000956111 0)
(0.999158 8.62826e-05 0)
(0.999271 -0.000185666 0)
(0.999075 -0.000697543 0)
(0.999282 -0.00127007 0)
(0.998961 -0.00156709 0)
(0.99786 -0.00123371 0)
(0.9975 -0.000790742 0)
(0.997469 -0.000371699 0)
(0.997041 0.000579387 0)
(0.996419 0.00184671 0)
(0.996449 0.00281201 0)
(0.996762 0.00354346 0)
(0.999415 -0.00124334 0)
(0.999101 0.000260111 0)
(1.00043 -0.00126801 0)
(0.997539 -0.000878857 0)
(0.997283 -0.000625845 0)
(0.998366 -0.00202942 0)
(0.997251 0.000205961 0)
(0.997415 0.000927407 0)
(0.999156 -1.19434e-05 0)
(0.999293 -0.000205386 0)
(0.999061 -0.000544459 0)
(0.999278 -0.00117161 0)
(0.99905 -0.00144137 0)
(0.998026 -0.00102982 0)
(0.997673 -0.000568171 0)
(0.997708 -0.000203459 0)
(0.997413 0.000617937 0)
(0.996822 0.001832 0)
(0.996786 0.00279829 0)
(0.997064 0.00349795 0)
(0.999472 -0.00111365 0)
(0.999179 0.000144955 0)
(1.00047 -0.00124717 0)
(0.997667 -0.000821444 0)
(0.997315 -0.000527298 0)
(0.998509 -0.00189997 0)
(0.997522 0.0001002 0)
(0.997481 0.000909411 0)
(0.999154 -9.14865e-05 0)
(0.999338 -0.000240389 0)
(0.999057 -0.000392825 0)
(0.999267 -0.00104079 0)
(0.999148 -0.00133647 0)
(0.998209 -0.000863294 0)
(0.997848 -0.000352278 0)
(0.99793 -2.95776e-05 0)
(0.997771 0.000655746 0)
(0.997232 0.00179434 0)
(0.997134 0.00275905 0)
(0.997355 0.00344547 0)
(0.999528 -0.000997371 0)
(0.999254 6.46557e-05 0)
(1.00052 -0.00125067 0)
(0.997805 -0.000766829 0)
(0.99735 -0.000423308 0)
(0.998646 -0.00178507 0)
(0.997795 -1.16686e-06 0)
(0.997552 0.000909552 0)
(0.999149 -0.000145348 0)
(0.999402 -0.000301482 0)
(0.999069 -0.000249231 0)
(0.999248 -0.000865162 0)
(0.99925 -0.0012412 0)
(0.998412 -0.000740486 0)
(0.998033 -0.000154896 0)
(0.998134 0.000166639 0)
(0.998109 0.00071503 0)
(0.997644 0.00173418 0)
(0.997494 0.00269533 0)
(0.997646 0.00336895 0)
(0.999583 -0.000895184 0)
(0.999323 1.78035e-05 0)
(1.00058 -0.00127329 0)
(0.997952 -0.00071938 0)
(0.997388 -0.000309863 0)
(0.998773 -0.00168015 0)
(0.998075 -0.00010596 0)
(0.997627 0.000931377 0)
(0.999134 -0.000162848 0)
(0.999487 -0.000386607 0)
(0.999106 -0.000127655 0)
(0.99922 -0.000651015 0)
(0.999341 -0.00112718 0)
(0.998633 -0.000659093 0)
(0.998239 1.34037e-05 0)
(0.998328 0.000374776 0)
(0.998412 0.000804644 0)
(0.998047 0.00166786 0)
(0.997865 0.00260848 0)
(0.997944 0.00327533 0)
(0.999637 -0.00080904 0)
(0.999384 4.28973e-06 0)
(1.00063 -0.00130644 0)
(0.99811 -0.000686804 0)
(0.997428 -0.000185314 0)
(0.998888 -0.00157739 0)
(0.998361 -0.000217217 0)
(0.997712 0.000962875 0)
(0.999106 -0.000136259 0)
(0.999583 -0.000480779 0)
(0.999175 -4.12951e-05 0)
(0.99919 -0.000419655 0)
(0.999415 -0.000979347 0)
(0.998867 -0.000606527 0)
(0.998472 0.000139428 0)
(0.998519 0.000561939 0)
(0.998681 0.000921995 0)
(0.998429 0.0016204 0)
(0.998245 0.00250015 0)
(0.99825 0.00316919 0)
(0.999689 -0.000737953 0)
(0.999436 1.53967e-05 0)
(1.00069 -0.00133516 0)
(0.99828 -0.000676755 0)
(0.99747 -5.08096e-05 0)
(0.998986 -0.00147049 0)
(0.998654 -0.000347369 0)
(0.997812 0.000996114 0)
(0.999061 -5.36773e-05 0)
(0.999686 -0.000576734 0)
(0.999282 -1.57468e-05 0)
(0.999167 -0.000184494 0)
(0.999464 -0.000784577 0)
(0.9991 -0.000560466 0)
(0.998734 0.000203599 0)
(0.998723 0.000716605 0)
(0.998922 0.00105693 0)
(0.998779 0.00160831 0)
(0.998624 0.0023826 0)
(0.998567 0.00304774 0)
(0.999739 -0.000680187 0)
(0.999478 4.43359e-05 0)
(1.00074 -0.00135452 0)
(0.998463 -0.000696271 0)
(0.997516 9.10132e-05 0)
(0.999064 -0.00134512 0)
(0.998952 -0.000497039 0)
(0.997935 0.00101063 0)
(0.998996 9.59731e-05 0)
(0.999778 -0.000646471 0)
(0.999428 -5.18961e-05 0)
(0.999167 2.47249e-05 0)
(0.999487 -0.00055207 0)
(0.999315 -0.000494614 0)
(0.999019 0.000219012 0)
(0.99895 0.000825295 0)
(0.999146 0.00118353 0)
(0.999091 0.00162665 0)
(0.998989 0.00227152 0)
(0.998891 0.00290741 0)
(0.999787 -0.000634703 0)
(0.99951 8.435e-05 0)
(1.00078 -0.00135142 0)
(0.998658 -0.00074818 0)
(0.997569 0.000235671 0)
(0.999114 -0.0011898 0)
(0.999249 -0.000659718 0)
(0.998091 0.000990817 0)
(0.998918 0.000285584 0)
(0.999845 -0.000652526 0)
(0.999607 -0.000138609 0)
(0.999202 0.000191494 0)
(0.99949 -0.000291116 0)
(0.999499 -0.000390883 0)
(0.999317 0.000214382 0)
(0.999207 0.000880553 0)
(0.999368 0.00128771 0)
(0.999366 0.0016681 0)
(0.999328 0.00218567 0)
(0.999222 0.00275225 0)
(0.999832 -0.000598502 0)
(0.999533 0.000129079 0)
(1.00081 -0.00131835 0)
(0.998863 -0.000828645 0)
(0.997634 0.000363107 0)
(0.999132 -0.000990007 0)
(0.999537 -0.000828302 0)
(0.998285 0.000913887 0)
(0.998836 0.000504305 0)
(0.999873 -0.000577191 0)
(0.999807 -0.000257509 0)
(0.999287 0.000291763 0)
(0.999486 -3.32214e-05 0)
(0.999641 -0.000245355 0)
(0.99961 0.000213818 0)
(0.999493 0.000882229 0)
(0.999602 0.00135216 0)
(0.999616 0.00171332 0)
(0.999629 0.00213433 0)
(0.999543 0.00260045 0)
(0.999874 -0.000570124 0)
(0.999548 0.000172881 0)
(1.00082 -0.00125628 0)
(0.999076 -0.000925091 0)
(0.997719 0.000450959 0)
(0.999117 -0.000738566 0)
(0.999801 -0.000968683 0)
(0.998524 0.000755069 0)
(0.998769 0.000724533 0)
(0.999854 -0.000411274 0)
(1.00001 -0.000351112 0)
(0.999422 0.000300995 0)
(0.999491 0.000202004 0)
(0.999746 -5.96449e-05 0)
(0.999878 0.000237172 0)
(0.999795 0.000856939 0)
(0.999857 0.00137339 0)
(0.999857 0.0017397 0)
(0.999894 0.00210733 0)
(0.999833 0.00248185 0)
(0.999913 -0.000545324 0)
(0.999558 0.000206953 0)
(1.00081 -0.00116531 0)
(0.999288 -0.00102521 0)
(0.99783 0.000489726 0)
(0.999074 -0.000461272 0)
(1.00002 -0.00104301 0)
(0.998803 0.00053219 0)
(0.998737 0.000902964 0)
(0.99979 -0.000175604 0)
(1.00017 -0.000387473 0)
(0.999606 0.000253102 0)
(0.999529 0.0003966 0)
(0.999816 0.000156667 0)
(1.00011 0.000296094 0)
(1.0001 0.00082968 0)
(1.00013 0.00136651 0)
(1.0001 0.00174492 0)
(1.00014 0.00208101 0)
(1.00008 0.00240359 0)
(0.999949 -0.000521988 0)
(0.999564 0.000228684 0)
(1.00077 -0.00104652 0)
(0.999495 -0.00111745 0)
(0.997969 0.000471219 0)
(0.999013 -0.000184714 0)
(1.0002 -0.00103652 0)
(0.999112 0.000269378 0)
(0.998756 0.00101008 0)
(0.999693 8.4503e-05 0)
(1.0003 -0.000349925 0)
(0.999818 0.00018766 0)
(0.999611 0.00050995 0)
(0.999866 0.000370424 0)
(1.0003 0.000393414 0)
(1.0004 0.000806594 0)
(1.00042 0.00133551 0)
(1.00035 0.00173193 0)
(1.00038 0.002037 0)
(1.0003 0.00233723 0)
(0.99998 -0.000497206 0)
(0.999569 0.000232562 0)
(1.00072 -0.000902555 0)
(0.999688 -0.00119263 0)
(0.998139 0.000404033 0)
(0.998947 7.2716e-05 0)
(1.0003 -0.00093399 0)
(0.999431 5.14275e-06 0)
(0.998835 0.0010092 0)
(0.999584 0.000367141 0)
(1.00037 -0.000227993 0)
(1.00003 0.000132617 0)
(0.999738 0.000552898 0)
(0.999919 0.000547748 0)
(1.00044 0.000520258 0)
(1.00066 0.000803259 0)
(1.00071 0.00128559 0)
(1.00059 0.00170582 0)
(1.0006 0.00198677 0)
(1.00051 0.00226064 0)
(1.00001 -0.000468346 0)
(0.999576 0.000215975 0)
(1.00065 -0.00074347 0)
(0.999859 -0.00123911 0)
(0.998337 0.000299495 0)
(0.998891 0.000299022 0)
(1.00035 -0.000750006 0)
(0.999733 -0.000213462 0)
(0.998984 0.000896985 0)
(0.999491 0.000624739 0)
(1.00038 -4.90065e-05 0)
(1.00023 0.000113442 0)
(0.999899 0.000558989 0)
(0.999991 0.000671587 0)
(1.00054 0.000646829 0)
(1.00089 0.000826216 0)
(1.001 0.00122501 0)
(1.00085 0.00165652 0)
(1.00082 0.00194063 0)
(1.00072 0.0021725 0)
(1.00003 -0.000435 0)
(0.999587 0.000180935 0)
(1.00057 -0.000581108 0)
(1 -0.00124351 0)
(0.998561 0.000161793 0)
(0.998858 0.000479209 0)
(1.00034 -0.000525326 0)
(0.999994 -0.000354751 0)
(0.99919 0.000717813 0)
(0.999436 0.000790941 0)
(1.00035 0.000178891 0)
(1.00039 0.000159895 0)
(1.00008 0.000564977 0)
(1.00008 0.000756724 0)
(1.00063 0.00075174 0)
(1.00107 0.000866353 0)
(1.00127 0.0011746 0)
(1.00112 0.00157953 0)
(1.00103 0.00189148 0)
(1.0009 0.0020888 0)
(1.00005 -0.000396956 0)
(0.999604 0.000130628 0)
(1.00048 -0.000424941 0)
(1.00012 -0.00119764 0)
(0.998803 1.25349e-05 0)
(0.998858 0.00058877 0)
(1.00029 -0.000284586 0)
(1.0002 -0.000400592 0)
(0.999431 0.000524449 0)
(0.999442 0.000850496 0)
(1.0003 0.000408503 0)
(1.0005 0.00026204 0)
(1.00026 0.0005822 0)
(1.00019 0.000824351 0)
(1.00071 0.000840438 0)
(1.00122 0.00090595 0)
(1.00151 0.00114375 0)
(1.00139 0.00148899 0)
(1.00125 0.00181971 0)
(1.00107 0.00201854 0)
(1.00006 -0.000353956 0)
(0.999627 7.11161e-05 0)
(1.00039 -0.000284815 0)
(1.0002 -0.00109849 0)
(0.999051 -0.000141547 0)
(0.998896 0.00062738 0)
(1.00022 -5.35331e-05 0)
(1.00035 -0.00035939 0)
(0.999677 0.00035215 0)
(0.999505 0.000832187 0)
(1.00026 0.00058217 0)
(1.00058 0.000392066 0)
(1.00043 0.000618574 0)
(1.00031 0.000881506 0)
(1.00078 0.000925977 0)
(1.00134 0.000940942 0)
(1.00171 0.00111968 0)
(1.00164 0.00140489 0)
(1.00149 0.00171672 0)
(1.00124 0.00194575 0)
(1.00007 -0.000311073 0)
(0.999657 1.6937e-05 0)
(1.00031 -0.000172598 0)
(1.00024 -0.000953846 0)
(0.999293 -0.000277407 0)
(0.998976 0.000601509 0)
(1.00014 0.000158217 0)
(1.00044 -0.000255611 0)
(0.99991 0.000224523 0)
(0.999617 0.000771134 0)
(1.00025 0.000692862 0)
(1.00062 0.000523673 0)
(1.00058 0.000676307 0)
(1.00043 0.000929287 0)
(1.00084 0.00100717 0)
(1.00142 0.000983259 0)
(1.00188 0.00109334 0)
(1.00187 0.00133586 0)
(1.00172 0.00160221 0)
(1.00142 0.00184945 0)
(1.00008 -0.000268438 0)
(0.99969 -2.92994e-05 0)
(1.00024 -8.96696e-05 0)
(1.00026 -0.00078773 0)
(0.999515 -0.000361032 0)
(0.999097 0.000525007 0)
(1.00008 0.000333264 0)
(1.00048 -0.000115354 0)
(1.00011 0.000160991 0)
(0.99976 0.000685334 0)
(1.00026 0.00074699 0)
(1.00067 0.000618359 0)
(1.00071 0.000734093 0)
(1.00056 0.0009696 0)
(1.00089 0.00107491 0)
(1.00147 0.0010369 0)
(1.00202 0.00106886 0)
(1.00207 0.00126804 0)
(1.00195 0.0014977 0)
(1.00161 0.00172494 0)
(1.00008 -0.000227634 0)
(0.999726 -6.57664e-05 0)
(1.00019 -3.10533e-05 0)
(1.00026 -0.000619591 0)
(0.999709 -0.000384569 0)
(0.999247 0.000427044 0)
(1.00005 0.000438147 0)
(1.00048 3.97029e-05 0)
(1.00028 0.000163908 0)
(0.999917 0.000611013 0)
(1.0003 0.000768964 0)
(1.00071 0.000686718 0)
(1.00083 0.000772808 0)
(1.00069 0.00100362 0)
(1.00095 0.00112946 0)