/*--------------------------------*- C++ -*----------------------------------*\
| =========                 |                                                 |
| \\      /  F ield         | OpenFOAM: The Open Source CFD Toolbox           |
|  \\    /   O peration     | Version:  2106                                  |
|   \\  /    A nd           | Website:  www.openfoam.com                      |
|    \\/     M anipulation  |                                                 |
\*---------------------------------------------------------------------------*/
FoamFile
{
    version     2.0;
    format      ascii;
    arch        "LSB;label=32;scalar=64";
    class       surfaceScalarField;
    location    "0.61";
    object      phi;
}
// * * * * * * * * * * * * * * * * * * * * * * * * * * * * * * * * * * * * * //

dimensions      [0 3 -1 0 0 0 0];

oriented        oriented;

internalField   nonuniform List<scalar> 
19000
(
1.16885e-06
-1.8328e-07
1.18248e-06
-2.28482e-07
1.21166e-06
7.89411e-07
1.12733e-06
4.33694e-08
1.14128e-06
-3.35191e-07
1.17326e-06
2.16149e-07
1.16185e-06
-2.11656e-07
1.16443e-06
2.66705e-07
1.16997e-06
-2.69528e-08
1.16253e-06
4.32562e-07
1.16126e-06
-1.81533e-07
1.14801e-06
3.17449e-08
1.1578e-06
-2.20041e-07
1.15659e-06
-2.68786e-08
1.16871e-06
-7.93089e-08
1.16743e-06
-1.06065e-08
1.17256e-06
-5.47024e-08
1.16576e-06
1.48476e-08
1.16374e-06
-5.85202e-08
8.47625e-10
1.13238e-06
1.22499e-06
-1.84009e-07
1.23869e-06
-2.42179e-07
1.26535e-06
7.62748e-07
1.18572e-06
1.23003e-07
1.19817e-06
-3.47648e-07
1.23318e-06
1.81146e-07
1.22118e-06
-1.99657e-07
1.22574e-06
2.62139e-07
1.2277e-06
-2.89096e-08
1.22813e-06
4.32131e-07
1.22146e-06
-1.74862e-07
1.21448e-06
3.87254e-08
1.21605e-06
-2.21608e-07
1.22296e-06
-3.37906e-08
1.223e-06
-7.93517e-08
1.23569e-06
-2.32929e-08
1.22302e-06
-4.20325e-08
1.23705e-06
8.19184e-10
1.20966e-06
-3.11346e-08
-4.81216e-09
1.21532e-06
1.28301e-06
-1.84236e-07
1.29741e-06
-2.56583e-07
1.31935e-06
7.4081e-07
1.25302e-06
1.89333e-07
1.25776e-06
-3.52386e-07
1.29646e-06
1.42446e-07
1.28251e-06
-1.85708e-07
1.29014e-06
2.5451e-07
1.28526e-06
-2.40301e-08
1.29336e-06
4.24031e-07
1.27969e-06
-1.61194e-07
1.27974e-06
3.86789e-08
1.27218e-06
-2.14052e-07
1.28399e-06
-4.56024e-08
1.27871e-06
-7.40667e-08
1.29243e-06
-3.70136e-08
1.28127e-06
-3.08718e-08
1.28905e-06
-6.95836e-09
1.27102e-06
-1.31117e-08
4.86769e-09
1.26134e-06
1.34298e-06
-1.83114e-07
1.35789e-06
-2.71496e-07
1.37466e-06
7.24046e-07
1.3259e-06
2.3809e-07
1.32101e-06
-3.47493e-07
1.3595e-06
1.03956e-07
1.34547e-06
-1.71676e-07
1.3525e-06
2.47476e-07
1.34361e-06
-1.51341e-08
1.35327e-06
4.14368e-07
1.33795e-06
-1.4587e-07
1.33946e-06
3.71604e-08
1.32953e-06
-2.04122e-07
1.33921e-06
-5.52784e-08
1.33604e-06
-7.08987e-08
1.34533e-06
-4.62991e-08
1.34016e-06
-2.57032e-08
1.34286e-06
-9.6606e-09
1.33046e-06
-7.07891e-10
1.74285e-08
1.3179e-06
1.40565e-06
-1.80407e-07
1.41983e-06
-2.85679e-07
1.43189e-06
7.11991e-07
1.40024e-06
2.69737e-07
1.3883e-06
-3.3556e-07
1.42188e-06
7.03827e-08
1.41056e-06
-1.60354e-07
1.41424e-06
2.43795e-07
1.40453e-06
-5.42627e-09
1.41235e-06
4.06542e-07
1.39923e-06
-1.32748e-07
1.40037e-06
3.60263e-08
1.39112e-06
-1.94877e-07
1.39787e-06
-6.20221e-08
1.39613e-06
-6.91616e-08
1.403e-06
-5.31691e-08
1.39997e-06
-2.26745e-08
1.40177e-06
-1.14569e-08
1.39125e-06
9.8087e-09
2.9711e-08
1.37897e-06
1.47192e-06
-1.76653e-07
1.48374e-06
-2.975e-07
1.49209e-06
7.03639e-07
1.47397e-06
2.87863e-07
1.45983e-06
-3.21419e-07
1.48569e-06
4.45149e-08
1.47826e-06
-1.52919e-07
1.47877e-06
2.4329e-07
1.46964e-06
3.69825e-09
1.47559e-06
4.00597e-07
1.4651e-06
-1.22264e-07
1.46667e-06
3.446e-08
1.45827e-06
-1.86478e-07
1.46344e-06
-6.71885e-08
1.4613e-06
-6.70218e-08
1.46685e-06
-5.87196e-08
1.46396e-06
-1.97888e-08
1.46512e-06
-1.26193e-08
1.45635e-06
1.85816e-08
4.20308e-08
1.44403e-06
1.54231e-06
-1.7275e-07
1.55064e-06
-3.05828e-07
1.55637e-06
6.97913e-07
1.54751e-06
2.96723e-07
1.53511e-06
-3.09023e-07
1.55328e-06
2.63505e-08
1.54878e-06
-1.48423e-07
1.54797e-06
2.44098e-07
1.5396e-06
1.20724e-08
1.54479e-06
3.9541e-07
1.5358e-06
-1.1328e-07
1.53861e-06
3.16536e-08
1.5307e-06
-1.78565e-07
1.53529e-06
-7.17803e-08
1.53212e-06
-6.38556e-08
1.53627e-06
-6.28706e-08
1.53297e-06
-1.6491e-08
1.53275e-06
-1.23975e-08
1.52573e-06
2.56044e-08
5.43494e-08
1.51341e-06
1.61674e-06
-1.69364e-07
1.62144e-06
-3.10525e-07
1.62545e-06
6.93899e-07
1.62243e-06
2.99746e-07
1.61335e-06
-2.99945e-07
1.62563e-06
1.40756e-08
1.62233e-06
-1.45128e-07
1.62187e-06
2.44559e-07
1.61423e-06
1.97122e-08
1.61963e-06
3.90013e-07
1.61104e-06
-1.04691e-07
1.61517e-06
2.75261e-08
1.60744e-06
-1.70837e-07
1.6119e-06
-7.62425e-08
1.6078e-06
-5.97509e-08
1.61039e-06
-6.5461e-08
1.60663e-06
-1.27381e-08
1.60451e-06
-1.02733e-08
1.59896e-06
3.1156e-08
6.64137e-08
1.58689e-06
1.69482e-06
-1.66612e-07
1.69657e-06
-3.12277e-07
1.69973e-06
6.90744e-07
1.70027e-06
2.99207e-07
1.69404e-06
-2.93719e-07
1.70256e-06
5.56114e-09
1.69921e-06
-1.41781e-07
1.69986e-06
2.43913e-07
1.69302e-06
2.65442e-08
1.69925e-06
3.83784e-07
1.69045e-06
-9.58883e-08
1.69556e-06
2.24117e-08
1.68772e-06
-1.62997e-07
1.69212e-06
-8.06384e-08
1.68739e-06
-5.50235e-08
1.68845e-06
-6.65173e-08
1.68451e-06
-8.80178e-09
1.68039e-06
-6.1479e-09
1.67593e-06
3.56114e-08
7.79569e-08
1.66439e-06
1.7763e-06
-1.64195e-07
1.77606e-06
-3.12027e-07
1.77927e-06
6.87532e-07
1.78202e-06
2.96451e-07
1.77721e-06
-2.88903e-07
1.7835e-06
-7.29005e-10
1.77964e-06
-1.3792e-07
1.78152e-06
2.42033e-07
1.77554e-06
3.25222e-08
1.78296e-06
3.76361e-07
1.77376e-06
-8.6684e-08
1.77944e-06
1.67269e-08
1.77122e-06
-1.54774e-07
1.77538e-06
-8.4799e-08
1.77038e-06
-5.00201e-08
1.77004e-06
-6.61808e-08
1.76634e-06
-5.10123e-09
1.76047e-06
-2.80137e-10
1.75675e-06
3.93304e-08
8.8668e-08
1.74604e-06
1.86127e-06
-1.61717e-07
1.85974e-06
-3.10497e-07
1.86388e-06
6.83387e-07
1.86815e-06
2.92187e-07
1.86324e-06
-2.83997e-07
1.86812e-06
-5.60893e-09
1.86378e-06
-1.33577e-07
1.86677e-06
2.39043e-07
1.8616e-06
3.76936e-08
1.87039e-06
3.67571e-07
1.86083e-06
-7.71237e-08
1.86673e-06
1.08205e-08
1.85796e-06
-1.46e-07
1.86163e-06
-8.8466e-08
1.85665e-06
-4.50466e-08
1.85508e-06
-6.46105e-08
1.852e-06
-2.01511e-09
1.84487e-06
6.84693e-09
1.84155e-06
4.26499e-08
9.81793e-08
1.83204e-06
1.95003e-06
-1.58912e-07
1.94759e-06
-3.08048e-07
1.95328e-06
6.77694e-07
1.95873e-06
2.86739e-07
1.95265e-06
-2.77922e-07
1.95647e-06
-9.42215e-09
1.95183e-06
-1.28939e-07
1.95574e-06
2.35128e-07
1.95126e-06
4.21735e-08
1.96143e-06
3.57403e-07
1.95166e-06
-6.73498e-08
1.95754e-06
4.93907e-09
1.9482e-06
-1.36659e-07
1.95112e-06
-9.13937e-08
1.94643e-06
-4.03523e-08
1.94375e-06
-6.19321e-08
1.94149e-06
2.43731e-10
1.93367e-06
1.46691e-08
1.93043e-06
4.5895e-08
1.06134e-07
1.92247e-06
2.04296e-06
-1.55681e-07
2.03973e-06
-3.04822e-07
2.04722e-06
6.70206e-07
2.0537e-06
2.80256e-07
2.04595e-06
-2.7017e-07
2.04883e-06
-1.22993e-08
2.04406e-06
-1.24168e-07
2.0487e-06
2.30487e-07
2.04478e-06
4.60932e-08
2.05621e-06
3.45968e-07
2.04638e-06
-5.75207e-08
2.05207e-06
-7.48364e-10
2.04228e-06
-1.26871e-07
2.04429e-06
-9.33978e-08
2.04006e-06
-3.61256e-08
2.03638e-06
-5.82494e-08
2.03494e-06
1.68616e-09
2.02696e-06
2.265e-08
2.02351e-06
4.93362e-08
1.12309e-07
2.01734e-06
2.14036e-06
-1.52038e-07
2.13643e-06
-3.00896e-07
2.14564e-06
6.60996e-07
2.15304e-06
2.72856e-07
2.1436e-06
-2.60724e-07
2.1456e-06
-1.42994e-08
2.1408e-06
-1.19367e-07
2.14598e-06
2.25305e-07
2.14251e-06
4.95624e-08
2.15501e-06
3.33467e-07
2.14526e-06
-4.77719e-08
2.15063e-06
-6.11567e-09
2.1406e-06
-1.16848e-07
2.14157e-06
-9.43681e-08
2.13793e-06
-3.24765e-08
2.13337e-06
-5.36895e-08
2.13253e-06
2.52568e-09
2.12482e-06
3.0353e-08
2.121e-06
5.31555e-08
1.16674e-07
2.11664e-06
2.2425e-06
-1.48046e-07
2.23796e-06
-2.96361e-07
2.24865e-06
6.50311e-07
2.25682e-06
2.64684e-07
2.24597e-06
-2.49873e-07
2.24713e-06
-1.54654e-08
2.24236e-06
-1.14598e-07
2.24792e-06
2.19751e-07
2.24483e-06
5.26557e-08
2.25814e-06
3.20152e-07
2.24858e-06
-3.82101e-08
2.25352e-06
-1.10548e-08
2.2435e-06
-1.06834e-07
2.2434e-06
-9.42667e-08
2.24035e-06
-2.94206e-08
2.23508e-06
-4.84226e-08
2.2345e-06
3.10511e-09
2.22741e-06
3.74468e-08
2.22313e-06
5.74354e-08
1.19386e-07
2.22041e-06
2.34961e-06
-1.4378e-07
2.34456e-06
-2.91313e-07
2.35643e-06
6.38444e-07
2.36519e-06
2.55918e-07
2.35336e-06
-2.38034e-07
2.35373e-06
-1.58425e-08
2.34905e-06
-1.0992e-07
2.35482e-06
2.1398e-07
2.35206e-06
5.54201e-08
2.36593e-06
3.06285e-07
2.35664e-06
-2.89237e-08
2.36106e-06
-1.54735e-08
2.35127e-06
-9.7047e-08
2.35013e-06
-9.31245e-08
2.3476e-06
-2.68851e-08
2.34182e-06
-4.26486e-08
2.34113e-06
3.7968e-09
2.33487e-06
4.37022e-08
2.33015e-06
6.21646e-08
1.20741e-07
2.32879e-06
2.46193e-06
-1.39317e-07
2.45646e-06
-2.85838e-07
2.46924e-06
6.2566e-07
2.47841e-06
2.46749e-07
2.466e-06
-2.25626e-07
2.46564e-06
-1.54765e-08
2.46112e-06
-1.05403e-07
2.46695e-06
2.08145e-07
2.46449e-06
5.78862e-08
2.47866e-06
2.92113e-07
2.46972e-06
-1.99879e-08
2.47356e-06
-1.93065e-08
2.46416e-06
-8.76471e-08
2.46207e-06
-9.10391e-08
2.45991e-06
-2.47267e-08
2.45384e-06
-3.65719e-08
2.45276e-06
4.87043e-09
2.44741e-06
4.90569e-08
2.44234e-06
6.72316e-08
1.21111e-07
2.44197e-06
2.5797e-06
-1.34727e-07
2.57386e-06
-2.79994e-07
2.58736e-06
6.12157e-07
2.59674e-06
2.37369e-07
2.58413e-06
-2.13008e-07
2.58306e-06
-1.44054e-08
2.57879e-06
-1.01137e-07
2.58455e-06
2.02388e-07
2.58236e-06
6.00756e-08
2.59662e-06
2.77846e-07
2.58809e-06
-1.14568e-08
2.59132e-06
-2.25312e-08
2.58238e-06
-7.87102e-08
2.5795e-06
-8.81634e-08
2.57755e-06
-2.27711e-08
2.57133e-06
-3.0353e-08
2.56977e-06
6.43523e-09
2.56521e-06
5.36075e-08
2.56001e-06
7.24409e-08
1.20882e-07
2.56023e-06
2.70317e-06
-1.30068e-07
2.697e-06
-2.73823e-07
2.7111e-06
5.98059e-07
2.7205e-06
2.2796e-07
2.70796e-06
-2.00466e-07
2.7062e-06
-1.26439e-08
2.70228e-06
-9.72208e-08
2.70784e-06
1.96829e-07
2.70592e-06
6.20042e-08
2.72012e-06
2.63641e-07
2.71201e-06
-3.34727e-09
2.71465e-06
-2.5175e-08
2.70618e-06
-7.02336e-08
2.70268e-06
-8.46704e-08
2.70078e-06
-2.08623e-08
2.6945e-06
-2.40789e-08
2.69246e-06
8.47433e-09
2.68855e-06
5.75175e-08
2.68342e-06
7.75736e-08
1.20388e-07
2.68391e-06
2.83258e-06
-1.25383e-07
2.82611e-06
-2.67346e-07
2.84074e-06
5.83424e-07
2.85001e-06
2.1869e-07
2.83776e-06
-1.88217e-07
2.8353e-06
-1.01833e-08
2.83183e-06
-9.37438e-08
2.8371e-06
1.91552e-07
2.83542e-06
6.36913e-08
2.84947e-06
2.49588e-07
2.84175e-06
4.37646e-09
2.84389e-06
-2.7316e-08
2.83581e-06
-6.21525e-08
2.83184e-06
-8.07072e-08
2.82991e-06
-1.89328e-08
2.82356e-06
-1.77304e-08
2.82113e-06
1.09048e-08
2.81774e-06
6.09155e-08
2.81285e-06
8.24579e-08
1.19874e-07
2.81337e-06
2.96822e-06
-1.20706e-07
2.96144e-06
-2.60568e-07
2.97661e-06
5.68257e-07
2.98559e-06
2.09707e-07
2.9738e-06
-1.7643e-07
2.97061e-06
-6.9941e-09
2.96764e-06
-9.07701e-08
2.9726e-06
1.86594e-07
2.97112e-06
6.51738e-08
2.985e-06
2.35702e-07
2.97758e-06
1.18022e-08
2.97932e-06
-2.90626e-08
2.97156e-06
-5.43921e-08
2.9672e-06
-7.63427e-08
2.96528e-06
-1.70175e-08
2.95876e-06
-1.12125e-08
2.95602e-06
1.36507e-08
2.9531e-06
6.38385e-08
2.94857e-06
8.69881e-08
1.19492e-07
2.94895e-06
3.11036e-06
-1.16064e-07
3.10327e-06
-2.53477e-07
3.119e-06
5.52528e-07
3.12757e-06
2.01143e-07
3.11637e-06
-1.65237e-07
3.11242e-06
-3.04199e-09
3.10998e-06
-8.83286e-08
3.11463e-06
1.81942e-07
3.11328e-06
6.65231e-08
3.12705e-06
2.2193e-07
3.1198e-06
1.90591e-08
3.12127e-06
-3.05309e-08
3.11378e-06
-4.69063e-08
3.10899e-06
-7.15579e-08
3.10718e-06
-1.51991e-08
3.10043e-06
-4.46643e-09
3.09735e-06
1.67325e-08
3.09495e-06
6.62357e-08
3.09084e-06
9.1098e-08
1.19321e-07
3.09101e-06
3.25933e-06
-1.11484e-07
3.2519e-06
-2.46048e-07
3.26824e-06
5.36188e-07
3.27627e-06
1.93118e-07
3.26578e-06
-1.54744e-07
3.26104e-06
1.69747e-09
3.25911e-06
-8.64035e-08
3.26353e-06
1.77527e-07
3.26219e-06
6.78557e-08
3.27596e-06
2.08164e-07
3.26873e-06
2.62874e-08
3.26999e-06
-3.1795e-08
3.26281e-06
-3.97262e-08
3.2575e-06
-6.62423e-08
3.25586e-06
-1.35613e-08
3.24894e-06
2.45614e-09
3.24539e-06
2.02772e-08
3.24358e-06
6.80454e-08
3.23998e-06
9.46972e-08
1.19392e-07
3.23991e-06
3.41544e-06
-1.06994e-07
3.40764e-06
-2.38249e-07
3.42465e-06
5.19175e-07
3.43203e-06
1.85741e-07
3.42232e-06
-1.45038e-07
3.4168e-06
7.22605e-09
3.41532e-06
-8.49304e-08
3.41963e-06
1.73223e-07
3.41815e-06
6.93317e-08
3.43204e-06
1.94275e-07
3.42474e-06
3.35901e-08
3.42579e-06
-3.2843e-08
3.41903e-06
-3.29728e-08
3.41302e-06
-6.02301e-08
3.41158e-06
-1.2121e-08
3.40467e-06
9.3617e-09
3.4005e-06
2.44484e-08
3.39926e-06
6.92864e-08
3.39631e-06
9.76502e-08
1.19679e-07
3.39602e-06
3.57904e-06
-1.02623e-07
3.57083e-06
-2.30038e-07
3.58858e-06
5.01426e-07
3.5952e-06
1.79115e-07
3.58635e-06
-1.36185e-07
3.58006e-06
1.35147e-08
3.57893e-06
-8.37938e-08
3.5833e-06
1.68853e-07
3.58148e-06
7.11448e-08
3.59562e-06
1.80139e-07
3.58821e-06
4.09958e-08
3.58891e-06
-3.35413e-08
3.5828e-06
-2.68612e-08
3.5759e-06
-5.33309e-08
3.57459e-06
-1.08107e-08
3.56797e-06
1.59772e-08
3.5631e-06
2.93222e-08
3.56226e-06
7.01243e-08
3.56012e-06
9.97895e-08
1.20085e-07
3.55972e-06
3.75048e-06
-9.84018e-08
3.74182e-06
-2.21371e-07
3.76036e-06
4.82881e-07
3.76615e-06
1.73329e-07
3.75819e-06
-1.2823e-07
3.75121e-06
2.04944e-08
3.75024e-06
-8.28236e-08
3.75491e-06
1.64187e-07
3.75255e-06
7.35038e-08
3.767e-06
1.6569e-07
3.75959e-06
4.84085e-08
3.75967e-06
-3.36193e-08
3.75445e-06
-2.16485e-08
3.74655e-06
-4.54233e-08
3.74516e-06
-9.42798e-09
3.73913e-06
2.20081e-08
3.73365e-06
3.48011e-08
3.73294e-06
7.08428e-08
3.73172e-06
1.01008e-07
1.2042e-07
3.73138e-06
3.93015e-06
-9.43606e-08
3.92098e-06
-2.12206e-07
3.94038e-06
4.63485e-07
3.94525e-06
1.68453e-07
3.9382e-06
-1.21181e-07
3.93066e-06
2.80421e-08
3.92962e-06
-8.17909e-08
3.93485e-06
1.58962e-07
3.93176e-06
7.6593e-08
3.94649e-06
1.50957e-07
3.93931e-06
5.55926e-08
3.93838e-06
-3.26942e-08
3.93429e-06
-1.75616e-08
3.92545e-06
-3.65742e-08
3.92361e-06
-7.59448e-09
3.91842e-06
2.71982e-08
3.91261e-06
4.06146e-08
3.91171e-06
7.17423e-08
3.91137e-06
1.01347e-07
1.20436e-07
3.91135e-06
4.11842e-06
-9.05308e-08
4.10871e-06
-2.025e-07
4.129e-06
4.43205e-07
4.13292e-06
1.64526e-07
4.12674e-06
-1.15e-07
4.11881e-06
3.59743e-08
4.11743e-06
-8.04104e-08
4.12349e-06
1.529e-07
4.11954e-06
8.0539e-08
4.1344e-06
1.36101e-07
4.1278e-06
6.21903e-08
4.12546e-06
-3.03492e-08
4.12258e-06
-1.46838e-08
4.11309e-06
-2.708e-08
4.1104e-06
-4.91144e-09
4.10616e-06
3.14451e-08
4.10037e-06
4.63994e-08
4.09909e-06
7.30218e-08
4.09941e-06
1.01025e-07
1.19899e-07
4.09995e-06
4.31571e-06
-8.69418e-08
4.30543e-06
-1.9222e-07
4.32661e-06
4.2203e-07
4.3296e-06
1.61536e-07
4.32419e-06
-1.09588e-07
4.31611e-06
4.4048e-08
4.31406e-06
-7.83563e-08
4.32121e-06
1.45748e-07
4.31639e-06
8.53592e-08
4.33107e-06
1.21426e-07
4.3255e-06
6.77575e-08
4.32136e-06
-2.62084e-08
4.31956e-06
-1.28851e-08
4.30991e-06
-1.74295e-08
4.30606e-06
-1.06346e-09
4.30271e-06
3.47966e-08
4.2973e-06
5.18118e-08
4.2956e-06
7.47199e-08
4.29628e-06
1.00347e-07
1.18712e-07
4.29746e-06
4.52245e-06
-8.36196e-08
4.51158e-06
-1.81346e-07
4.53362e-06
3.99988e-07
4.53575e-06
1.59406e-07
4.53094e-06
-1.04776e-07
4.52302e-06
5.19657e-08
4.51995e-06
-7.52868e-08
4.52837e-06
1.37327e-07
4.52279e-06
9.0935e-08
4.53687e-06
1.07354e-07
4.53274e-06
7.18847e-08
4.52666e-06
-2.01292e-08
4.52555e-06
-1.17722e-08
4.5163e-06
-8.18259e-09
4.51117e-06
4.06394e-09
4.5085e-06
3.74646e-08
4.50374e-06
5.65789e-08
4.50172e-06
7.67361e-08
4.50248e-06
9.95912e-08
1.16973e-07
4.50422e-06
4.73908e-06
-8.05847e-08
4.72761e-06
-1.69878e-07
4.75045e-06
3.77153e-07
4.75187e-06
1.57979e-07
4.74741e-06
-1.00315e-07
4.73999e-06
5.93845e-08
4.73559e-06
-7.08807e-08
4.74532e-06
1.27599e-07
4.73928e-06
9.69672e-08
4.75223e-06
9.44075e-08
4.74984e-06
7.42796e-08
4.74197e-06
-1.22606e-08
4.74099e-06
-1.07953e-08
4.73261e-06
1.96444e-10
4.72634e-06
1.03322e-08
4.72402e-06
3.9791e-08
4.72009e-06
6.05024e-08
4.71791e-06
7.89242e-08
4.71858e-06
9.89118e-08
1.1491e-07
4.72065e-06
4.96606e-06
-7.78488e-08
4.95403e-06
-1.57845e-07
4.97752e-06
3.53661e-07
4.9785e-06
1.57001e-07
4.97407e-06
-9.58831e-08
4.96751e-06
6.5941e-08
4.96152e-06
-6.48904e-08
4.97242e-06
1.16701e-07
4.96636e-06
1.03024e-07
4.97767e-06
8.31046e-08
4.97708e-06
7.48626e-08
4.96784e-06
-3.01503e-09
4.9664e-06
-9.36012e-09
4.95921e-06
7.38628e-09
4.95211e-06
1.74317e-08
4.94978e-06
4.21253e-08
4.94679e-06
6.34911e-08
4.9446e-06
8.11084e-08
4.94514e-06
9.83816e-08
1.12739e-07
4.94731e-06
5.20388e-06
-7.54124e-08
5.19135e-06
-1.45315e-07
5.21529e-06
3.29717e-07
5.21618e-06
1.5611e-07
5.21138e-06
-9.1082e-08
5.20605e-06
7.12768e-08
5.19836e-06
-5.72062e-08
5.21006e-06
1.05004e-07
5.20454e-06
1.08545e-07
5.21375e-06
7.38918e-08
5.21483e-06
7.37855e-08
5.20477e-06
7.04345e-09
5.20239e-06
-6.98181e-09
5.19649e-06
1.32899e-08
5.18899e-06
2.49336e-08
5.18635e-06
4.47587e-08
5.18428e-06
6.55603e-08
5.1823e-06
8.30951e-08
5.18265e-06
9.80338e-08
1.10575e-07
5.18481e-06
5.45304e-06
-7.32633e-08
5.44012e-06
-1.32392e-07
5.46423e-06
3.05609e-07
5.4655e-06
1.54836e-07
5.45988e-06
-8.54583e-08
5.45608e-06
7.5077e-08
5.44675e-06
-4.7883e-08
5.4587e-06
9.30595e-08
5.45427e-06
1.12973e-07
5.46117e-06
6.69957e-08
5.46354e-06
7.14091e-08
5.45322e-06
1.73699e-08
5.44963e-06
-3.39477e-09
5.44495e-06
1.79685e-08
5.43749e-06
3.23956e-08
5.43432e-06
4.79241e-08
5.43305e-06
6.68354e-08
5.43149e-06
8.46485e-08
5.43163e-06
9.78985e-08
1.08467e-07
5.43374e-06
5.71407e-06
-7.13746e-08
5.7009e-06
-1.19227e-07
5.72481e-06
2.81704e-07
5.72702e-06
1.52621e-07
5.72012e-06
-7.85518e-08
5.71805e-06
7.71474e-08
5.70734e-06
-3.71769e-08
5.71886e-06
8.15385e-08
5.71596e-06
1.15877e-07
5.72058e-06
6.2374e-08
5.72376e-06
6.82261e-08
5.71364e-06
2.74913e-08
5.70881e-06
1.43382e-09
5.70516e-06
2.16221e-08
5.69814e-06
3.94137e-08
5.69432e-06
5.17404e-08
5.69358e-06
6.75819e-08
5.69271e-06
8.55174e-08
5.69267e-06
9.79366e-08
1.06487e-07
5.69465e-06
5.98752e-06
-6.97015e-08
5.9743e-06
-1.06012e-07
5.99755e-06
2.58458e-07
6.00129e-06
1.48879e-07
5.99272e-06
-6.99794e-08
5.99235e-06
7.75174e-08
5.98082e-06
-2.56434e-08
5.99117e-06
7.11886e-08
5.98997e-06
1.1707e-07
5.99266e-06
5.96856e-08
5.99608e-06
6.48089e-08
5.98657e-06
3.69998e-08
5.98064e-06
7.36978e-09
5.97773e-06
2.45257e-08
5.97147e-06
4.56765e-08
5.96701e-06
5.61955e-08
5.96643e-06
6.81679e-08
5.96643e-06
8.55198e-08
5.96637e-06
9.79957e-08
1.0473e-07
5.96812e-06
6.27397e-06
-6.81832e-08
6.26093e-06
-9.29718e-08
6.28301e-06
2.36382e-07
6.2888e-06
1.43087e-07
6.2784e-06
-5.95841e-08
6.27943e-06
7.64902e-08
6.26786e-06
-1.40761e-08
6.27635e-06
6.27011e-08
6.27675e-06
1.16672e-07
6.27802e-06
5.84149e-08
6.28125e-06
6.15806e-08
6.27247e-06
4.57717e-08
6.26571e-06
1.41324e-08
6.26331e-06
2.69243e-08
6.25802e-06
5.097e-08
6.25309e-06
6.11297e-08
6.25227e-06
6.89818e-08
6.25312e-06
8.46703e-08
6.25334e-06
9.77791e-08
1.03253e-07
6.25481e-06
6.57403e-06
-6.67423e-08
6.56141e-06
-8.03491e-08
6.58179e-06
2.15999e-07
6.58995e-06
1.34927e-07
6.57798e-06
-4.76138e-08
6.5798e-06
7.4667e-08
6.56901e-06
-3.28823e-09
6.5752e-06
5.65157e-08
6.57679e-06
1.1508e-07
6.57716e-06
5.80481e-08
6.58e-06
5.87421e-08
6.57205e-06
5.37223e-08
6.56456e-06
2.16174e-08
6.56253e-06
2.89591e-08
6.55836e-06
5.51339e-08
6.55321e-06
6.62792e-08
6.55186e-06
7.03322e-08
6.55333e-06
8.32058e-08
6.55414e-06
9.69635e-08
1.01995e-07
6.5554e-06
6.88834e-06
-6.52884e-08
6.87637e-06
-6.83825e-08
6.89467e-06
1.977e-07
6.90519e-06
1.24408e-07
6.89232e-06
-3.47409e-08
6.89399e-06
7.29921e-08
6.88468e-06
6.01978e-09
6.88861e-06
5.25843e-08
6.89074e-06
1.12954e-07
6.89063e-06
5.81582e-08
6.89317e-06
5.61972e-08
6.88599e-06
6.09034e-08
6.87787e-06
2.97416e-08
6.87597e-06
3.0857e-08
6.87309e-06
5.80114e-08
6.86805e-06
7.13199e-08
6.86599e-06
7.23967e-08
6.8677e-06
8.14914e-08
6.86932e-06
9.53468e-08
1.00773e-07
6.87054e-06
7.21757e-06
-6.37181e-08
7.20648e-06
-5.72918e-08
7.22245e-06
1.81724e-07
7.23503e-06
1.11828e-07
7.22225e-06
-2.19635e-08
7.22277e-06
7.24748e-08
7.21527e-06
1.3519e-08
7.21748e-06
5.03781e-08
7.21938e-06
1.11047e-07
7.219e-06
5.85448e-08
7.22153e-06
5.36689e-08
7.21514e-06
6.72878e-08
7.20639e-06
3.84892e-08
7.20431e-06
3.29407e-08
7.20277e-06
5.95507e-08
7.19826e-06
7.58306e-08
7.19546e-06
7.51987e-08
7.19701e-06
7.9945e-08
7.19943e-06
9.29197e-08
9.93451e-08
7.20086e-06
7.56243e-06
-6.19226e-08
7.55243e-06
-4.72956e-08
7.56598e-06
1.68182e-07
7.58007e-06
9.77385e-08
7.56852e-06
-1.04191e-08
7.56705e-06
7.39478e-08
7.56128e-06
1.92874e-08
7.56256e-06
4.90981e-08
7.56377e-06
1.09832e-07
7.56282e-06
5.95044e-08
7.5656e-06
5.08833e-08
7.56029e-06
7.25942e-08
7.551e-06
4.77863e-08
7.54831e-06
3.56253e-08
7.54799e-06
5.98723e-08
7.54445e-06
7.93755e-08
7.54109e-06
7.85537e-08
7.54207e-06
7.89631e-08
7.54514e-06
8.98515e-08
9.74925e-08
7.54699e-06
7.92368e-06
-5.97893e-08
7.91503e-06
-3.86492e-08
7.92612e-06
1.57096e-07
7.94097e-06
8.28892e-08
7.93169e-06
-1.14514e-09
7.92785e-06
7.77945e-08
7.92334e-06
2.37894e-08
7.92451e-06
4.79287e-08
7.92482e-06
1.0953e-07
7.92284e-06
6.14849e-08
7.9259e-06
4.78209e-08
7.92213e-06
7.63649e-08
7.91255e-06
5.73585e-08
7.90886e-06
3.93195e-08
7.90941e-06
5.9326e-08
7.90721e-06
8.15729e-08
7.90367e-06
8.20908e-08
7.9038e-06
7.8834e-08
7.90719e-06
8.64614e-08
9.50359e-08
7.90965e-06
8.3021e-06
-5.72066e-08
8.29506e-06
-3.16098e-08
8.30379e-06
1.48366e-07
8.31847e-06
6.82074e-08
8.31228e-06
5.04326e-09
8.30625e-06
8.38288e-08
8.30208e-06
2.79592e-08
8.30388e-06
4.61244e-08
8.30349e-06
1.09926e-07
8.29999e-06
6.49843e-08
8.30299e-06
4.48197e-08
8.3012e-06
7.81511e-08
8.2919e-06
6.6664e-08
8.28695e-06
4.42707e-08
8.28783e-06
5.84365e-08
8.28715e-06
8.22566e-08
8.28394e-06
8.53065e-08
8.28314e-06
7.96325e-08
8.28638e-06
8.32183e-08
9.18384e-08
8.28958e-06
8.69853e-06
-5.40712e-08
8.69335e-06
-2.64328e-08
8.69987e-06
1.41844e-07
8.71343e-06
5.46467e-08
8.71079e-06
7.68079e-09
8.70338e-06
9.12395e-08
8.69831e-06
3.30324e-08
8.70115e-06
4.32862e-08
8.70077e-06
1.10305e-07
8.69543e-06
7.03255e-08
8.6977e-06
4.25469e-08
8.69808e-06
7.77743e-08
8.68973e-06
7.50079e-08
8.6836e-06
5.04064e-08
8.68421e-06
5.78266e-08
8.68492e-06
8.15417e-08
8.68255e-06
8.76789e-08
8.68104e-06
8.11464e-08
8.68363e-06
8.0623e-08
8.79512e-08
8.68752e-06
9.11386e-06
-5.03114e-08
9.11067e-06
-2.32445e-08
9.1153e-06
1.37213e-07
9.12683e-06
4.31219e-08
9.1278e-06
6.70626e-09
9.12024e-06
9.87991e-08
9.11321e-06
4.00658e-08
9.11684e-06
3.96506e-08
9.11738e-06
1.09773e-07
9.11049e-06
7.72071e-08
9.11109e-06
4.19487e-08
9.1134e-06
7.54624e-08
9.10673e-06
8.16863e-08
9.09979e-06
5.73431e-08
9.09958e-06
5.80329e-08
9.10133e-06
7.97988e-08
9.10016e-06
8.88469e-08
9.09841e-06
8.28942e-08
9.10001e-06
7.90196e-08
8.37323e-08
9.10423e-06
9.54904e-06
-4.58927e-08
9.54783e-06
-2.20353e-08
9.55101e-06
1.34038e-07
9.55979e-06
3.43375e-08
9.56396e-06
2.54186e-09
9.55767e-06
1.05082e-07
9.54806e-06
4.96747e-08
9.55167e-06
3.60462e-08
9.55396e-06
1.0748e-07
9.54627e-06
8.48957e-08
9.54442e-06
4.37972e-08
9.548e-06
7.18835e-08
9.54355e-06
8.61412e-08
9.53636e-06
6.45286e-08
9.5351e-06
5.92998e-08
9.53731e-06
7.75849e-08
9.53743e-06
8.87262e-08
9.53604e-06
8.4289e-08
9.53665e-06
7.84026e-08
7.97593e-08
9.54063e-06
1.00051e-05
-4.0838e-08
1.00057e-05
-2.26132e-08
1.0008e-05
1.31734e-07
1.00135e-05
2.87812e-08
1.00201e-05
-4.03482e-09
1.00164e-05
1.08761e-07
1.00043e-05
6.1789e-08
1.00067e-05
3.36516e-08
1.00111e-05
1.03082e-07
1.00036e-05
9.23966e-08
9.99924e-06
4.81507e-08
1.00029e-05
6.81821e-08
1.00009e-05
8.82152e-08
9.99413e-06
7.12687e-08
9.99185e-06
6.15748e-08
9.99401e-06
7.5425e-08
9.99522e-06
8.75177e-08
9.99458e-06
8.49314e-08
9.99467e-06
7.8315e-08
7.65931e-08
9.99783e-06
1.0483e-05
-3.52371e-08
1.0485e-05
-2.45898e-08
1.04872e-05
1.29575e-07
1.04892e-05
2.67187e-08
1.04972e-05
-1.20204e-08
1.0497e-05
1.09012e-07
1.04833e-05
7.54831e-08
1.04832e-05
3.37159e-08
1.04895e-05
9.67809e-08
1.04833e-05
9.8625e-08
1.04768e-05
5.46426e-08
1.04795e-05
6.54375e-08
1.04795e-05
8.82058e-08
1.04739e-05
7.69132e-08
1.04708e-05
6.46551e-08
1.04726e-05
7.36295e-08
1.04746e-05
8.55533e-08
1.04748e-05
8.47401e-08
1.0475e-05
7.81098e-08
7.44408e-08
1.04771e-05
1.0984e-05
-2.92377e-08
1.09869e-05
-2.74677e-08
1.09896e-05
1.26847e-07
1.09882e-05
2.80975e-08
1.09964e-05
-2.02106e-08
1.1e-05
1.0547e-07
1.0986e-05
8.94139e-08
1.09827e-05
3.70317e-08
1.09902e-05
8.93006e-08
1.09861e-05
1.02734e-07
1.09781e-05
6.2597e-08
1.09793e-05
6.43322e-08
1.09807e-05
8.67896e-08
1.09765e-05
8.1043e-08
1.0973e-05
6.81523e-08
1.09743e-05
7.24171e-08
1.09767e-05
8.31098e-08
1.09776e-05
8.38204e-08
1.09783e-05
7.7464e-08
7.2891e-08
1.09798e-05
1.15092e-05
-2.30363e-08
1.15124e-05
-3.0693e-08
1.15163e-05
1.22944e-07
1.15119e-05
3.25303e-08
1.1519e-05
-2.73229e-08
1.15262e-05
9.82445e-08
1.15135e-05
1.02122e-07
1.15069e-05
4.36218e-08
1.15143e-05
8.18846e-08
1.15127e-05
1.04373e-07
1.15044e-05
7.08909e-08
1.15035e-05
6.52563e-08
1.15055e-05
8.47129e-08
1.15029e-05
8.36378e-08
1.14996e-05
7.15058e-08
1.15001e-05
7.19434e-08
1.15027e-05
8.04412e-08
1.15042e-05
8.23073e-08
1.15053e-05
7.63823e-08
7.13962e-08
1.15068e-05
1.20597e-05
-1.68699e-08
1.20626e-05
-3.36681e-08
1.20682e-05
1.17387e-07
1.20614e-05
3.93254e-08
1.20661e-05
-3.20141e-08
1.20765e-05
8.77856e-08
1.20665e-05
1.12115e-07
1.20571e-05
5.30457e-08
1.20631e-05
7.58831e-08
1.2064e-05
1.03507e-07
1.20563e-05
7.86037e-08
1.20536e-05
6.79377e-08
1.20555e-05
8.28266e-08
1.20542e-05
8.48786e-08
1.20514e-05
7.43293e-08
1.20513e-05
7.20794e-08
1.20538e-05
7.7882e-08
1.20559e-05
8.02508e-08
1.20573e-05
7.49964e-08
6.96559e-08
1.2059e-05
1.26367e-05
-1.09862e-08
1.26389e-05
-3.58343e-08
1.26463e-05
1.09923e-07
1.26381e-05
4.76082e-08
1.26393e-05
-3.32805e-08
1.26522e-05
7.49367e-08
1.26461e-05
1.18233e-07
1.26346e-05
6.45018e-08
1.26383e-05
7.21909e-08
1.26411e-05
1.00653e-07
1.26348e-05
8.4996e-08
1.26309e-05
7.18353e-08
1.2632e-05
8.16407e-08
1.26318e-05
8.51271e-08
1.26296e-05
7.64735e-08
1.26292e-05
7.25056e-08
1.26314e-05
7.57183e-08
1.26338e-05
7.78158e-08
1.26355e-05
7.32889e-08
6.76808e-08
1.26375e-05
1.32416e-05
-5.61553e-09
1.32425e-05
-3.67548e-08
1.32518e-05
1.00614e-07
1.3243e-05
5.63573e-08
1.32404e-05
-3.0684e-08
1.32545e-05
6.08926e-08
1.32526e-05
1.2008e-07
1.32405e-05
7.66091e-08
1.32415e-05
7.12295e-08
1.32454e-05
9.6751e-08
1.32409e-05
8.94927e-08
1.32363e-05
7.64144e-08
1.32367e-05
8.1277e-08
1.3237e-05
8.48571e-08
1.32355e-05
7.78882e-08
1.32351e-05
7.29876e-08
1.32368e-05
7.39456e-08
1.32394e-05
7.52782e-08
1.32414e-05
7.12299e-08
6.5535e-08
1.32436e-05
1.38755e-05
-9.38783e-10
1.38749e-05
-3.61682e-08
1.38856e-05
8.98704e-08
1.38775e-05
6.4485e-08
1.38712e-05
-2.44093e-08
1.38849e-05
4.7217e-08
1.38872e-05
1.17769e-07
1.3876e-05
8.78423e-08
1.38742e-05
7.30185e-08
1.38782e-05
9.27259e-08
1.38758e-05
9.19642e-08
1.38712e-05
8.09516e-08
1.38708e-05
8.17159e-08
1.38713e-05
8.43464e-08
1.38705e-05
7.8691e-08
1.38702e-05
7.3326e-08
1.38716e-05
7.24793e-08
1.38741e-05
7.27548e-08
1.38764e-05
6.89293e-08
6.32653e-08
1.38787e-05
1.45398e-05
2.91629e-09
1.45376e-05
-3.39702e-08
1.45492e-05
7.83216e-08
1.45426e-05
7.10234e-08
1.45333e-05
-1.51304e-08
1.45451e-05
3.54634e-08
1.45511e-05
1.11776e-07
1.45419e-05
9.70112e-08
1.4538e-05
7.69197e-08
1.45413e-05
8.94096e-08
1.45406e-05
9.2705e-08
1.45368e-05
8.47788e-08
1.45357e-05
8.27855e-08
1.45363e-05
8.37661e-08
1.4536e-05
7.89675e-08
1.45358e-05
7.35128e-08
1.45371e-05
7.11561e-08
1.45395e-05
7.0419e-08
1.45419e-05
6.64541e-08
6.08735e-08
1.45443e-05
1.52359e-05
5.8994e-09
1.52322e-05
-3.02431e-08
1.52438e-05
6.67122e-08
1.52395e-05
7.52774e-08
1.52282e-05
-3.82436e-09
1.52369e-05
2.68018e-08
1.52457e-05
1.0299e-07
1.52393e-05
1.03358e-07
1.52343e-05
8.19812e-08
1.52364e-05
8.72555e-08
1.52369e-05
9.22414e-08
1.52341e-05
8.75823e-08
1.52328e-05
8.40257e-08
1.52333e-05
8.32582e-08
1.52336e-05
7.86749e-08
1.52336e-05
7.35035e-08
1.52348e-05
6.99631e-08
1.5237e-05
6.82419e-08
1.52394e-05
6.40841e-08
5.8337e-08
1.52419e-05
1.59652e-05
8.03763e-09
1.59602e-05
-2.52723e-08
1.59712e-05
5.57767e-08
1.59694e-05
7.70181e-08
1.59572e-05
8.34918e-09
1.59623e-05
2.17862e-08
1.59726e-05
9.26887e-08
1.59694e-05
1.06471e-07
1.59642e-05
8.72689e-08
1.59651e-05
8.63275e-08
1.59663e-05
9.10129e-08
1.59646e-05
8.93441e-08
1.59635e-05
8.51162e-08
1.5964e-05
8.27046e-08
1.59648e-05
7.79244e-08
1.59653e-05
7.30035e-08
1.59663e-05
6.89701e-08
1.59684e-05
6.6142e-08
1.59705e-05
6.19719e-08
5.5872e-08
1.59729e-05
1.67292e-05
9.42296e-09
1.67234e-05
-1.94664e-08
1.67331e-05
4.61163e-08
1.67335e-05
7.65462e-08
1.67218e-05
2.00656e-08
1.67232e-05
2.03973e-08
1.67336e-05
8.22988e-08
1.67337e-05
1.06341e-07
1.67291e-05
9.1926e-08
1.6729e-05
8.64357e-08
1.67305e-05
8.94433e-08
1.67298e-05
9.00504e-08
1.6729e-05
8.59936e-08
1.67297e-05
8.19357e-08
1.67308e-05
7.6803e-08
1.6732e-05
7.18685e-08
1.67331e-05
6.78827e-08
1.67349e-05
6.43327e-08
1.67369e-05
5.99544e-08
5.38181e-08
1.67389e-05
1.75296e-05
1.01913e-08
1.75234e-05
-1.33219e-08
1.75314e-05
3.82099e-08
1.75337e-05
7.42484e-08
1.75232e-05
3.05413e-08
1.75216e-05
2.20164e-08
1.7531e-05
7.28939e-08
1.75337e-05
1.03591e-07
1.75304e-05
9.52581e-08
1.75297e-05
8.71466e-08
1.75313e-05
8.78472e-08
1.75315e-05
8.97913e-08
1.7531e-05
8.65621e-08
1.75318e-05
8.10888e-08
1.75334e-05
7.52002e-08
1.7535e-05
7.02749e-08
1.75365e-05
6.64084e-08
1.75381e-05
6.27304e-08
1.75398e-05
5.82093e-08
5.212e-08
1.75415e-05
1.8368e-05
1.0493e-08
1.8362e-05
-7.25378e-09
1.83679e-05
3.22661e-08
1.83715e-05
7.06847e-08
1.83627e-05
3.92799e-08
1.8359e-05
2.57266e-08
1.83667e-05
6.52631e-08
1.83712e-05
9.90464e-08
1.83696e-05
9.68767e-08
1.83688e-05
8.79655e-08
1.83703e-05
8.63084e-08
1.83713e-05
8.87859e-08
1.83712e-05
8.66659e-08
1.83718e-05
8.04559e-08
1.83737e-05
7.33024e-08
1.83758e-05
6.8189e-08
1.83776e-05
6.46078e-08
1.83793e-05
6.10224e-08
1.83808e-05
5.67225e-08
5.06597e-08
1.83823e-05
1.92464e-05
1.04542e-08
1.92407e-05
-1.51772e-09
1.92448e-05
2.81874e-08
1.9249e-05
6.64501e-08
1.92421e-05
4.61904e-08
1.92373e-05
3.04972e-08