/*--------------------------------*- C++ -*----------------------------------*\
| =========                 |                                                 |
| \\      /  F ield         | OpenFOAM: The Open Source CFD Toolbox           |
|  \\    /   O peration     | Version:  2106                                  |
|   \\  /    A nd           | Website:  www.openfoam.com                      |
|    \\/     M anipulation  |                                                 |
\*---------------------------------------------------------------------------*/
FoamFile
{
    version     2.0;
    format      ascii;
    arch        "LSB;label=32;scalar=64";
    class       volVectorField;
    location    "0.61";
    object      U;
}
// * * * * * * * * * * * * * * * * * * * * * * * * * * * * * * * * * * * * * //

dimensions      [0 1 -1 0 0 0 0];

internalField   nonuniform List<vector> 
9600
(
(0.858201 -0.00184594 0)
(1.13125 -0.00238345 0)
(0.902211 0.00969759 0)
(1.1627 -0.00023375 0)
(0.780333 -0.00459873 0)
(1.15989 0.00366263 0)
(0.859593 -0.00366222 0)
(1.12014 0.00485155 0)
(0.87959 -0.000447841 0)
(1.1166 0.00920733 0)
(0.880318 -0.00431452 0)
(1.10251 0.000528775 0)
(0.866774 -0.00597732 0)
(1.10971 -0.000816211 0)
(0.87525 -0.00235503 0)
(1.1194 -0.000354185 0)
(0.882609 -0.00208757 0)
(1.12018 0.000441044 0)
(0.873862 -0.0029383 0)
(1.12231 -0.000546027 0)
(0.868397 -0.0018426 0)
(1.12221 -0.00255976 0)
(0.910071 0.00922999 0)
(1.14831 0.00119163 0)
(0.801196 -0.00481136 0)
(1.14321 0.00308585 0)
(0.881672 -0.00347167 0)
(1.10524 0.00485008 0)
(0.903364 -0.000585853 0)
(1.096 0.00931627 0)
(0.916219 -0.00422392 0)
(1.07545 0.000980835 0)
(0.911689 -0.00615794 0)
(1.07102 -0.000831974 0)
(0.930426 -0.0026861 0)
(1.064 -0.000498208 0)
(0.956089 -0.00194558 0)
(1.04103 0.000494139 0)
(0.976729 -0.00206303 0)
(1.00599 -0.000132405 0)
(0.887535 -0.00185312 0)
(1.10384 -0.00273044 0)
(0.92623 0.00890401 0)
(1.12378 0.00209904 0)
(0.839557 -0.00498111 0)
(1.11153 0.00248887 0)
(0.917191 -0.00321505 0)
(1.0771 0.00472056 0)
(0.937757 -0.000556541 0)
(1.06289 0.00927738 0)
(0.95622 -0.00392827 0)
(1.03866 0.00103103 0)
(0.956033 -0.00605845 0)
(1.0275 -0.00121627 0)
(0.974087 -0.00249553 0)
(1.01986 -0.00112659 0)
(0.993105 -0.00132405 0)
(1.00657 -0.000299411 0)
(0.998582 -0.000885649 0)
(0.990142 -0.000239498 0)
(0.91262 -0.00185081 0)
(1.07886 -0.00289321 0)
(0.946981 0.00869232 0)
(1.09365 0.00283152 0)
(0.885714 -0.00496359 0)
(1.07368 0.0018879 0)
(0.953408 -0.00296668 0)
(1.04625 0.00455247 0)
(0.966947 -0.000395327 0)
(1.03185 0.00905669 0)
(0.981812 -0.00357813 0)
(1.01117 0.000964375 0)
(0.978992 -0.00580015 0)
(1.00165 -0.00156082 0)
(0.988881 -0.00235997 0)
(1.00092 -0.00154412 0)
(0.997849 -0.00106974 0)
(0.998621 -0.000390181 0)
(0.995686 -0.000317061 0)
(0.989766 0.000659013 0)
(0.939134 -0.00182823 0)
(1.05243 -0.00305583 0)
(0.967212 0.00852515 0)
(1.06352 0.0033434 0)
(0.928281 -0.0048175 0)
(1.0403 0.00131059 0)
(0.98044 -0.00275181 0)
(1.02252 0.00444256 0)
(0.984622 -0.000201254 0)
(1.01132 0.00883516 0)
(0.992843 -0.00325272 0)
(0.997589 0.000928037 0)
(0.987 -0.00553424 0)
(0.991793 -0.00179608 0)
(0.990509 -0.00231294 0)
(0.994285 -0.00181417 0)
(0.994993 -0.000922467 0)
(0.995141 -0.000480224 0)
(0.992689 0.000236728 0)
(0.987642 0.00127989 0)
(0.96264 -0.00179193 0)
(1.02965 -0.00320434 0)
(0.982985 0.00840697 0)
(1.03833 0.00365481 0)
(0.960236 -0.00461811 0)
(1.01772 0.000841455 0)
(0.995719 -0.00259987 0)
(1.00889 0.00440959 0)
(0.992998 -1.52624e-05 0)
(1.00121 0.00868271 0)
(0.996366 -0.00298451 0)
(0.993208 0.000903083 0)
(0.990001 -0.00529201 0)
(0.990029 -0.00196691 0)
(0.990408 -0.00224959 0)
(0.992292 -0.0020232 0)
(0.992818 -0.000815737 0)
(0.992919 -0.000547858 0)
(0.991083 0.000673564 0)
(0.986331 0.00188887 0)
(0.980369 -0.00175161 0)
(1.01342 -0.00331609 0)
(0.992899 0.00833116 0)
(1.02048 0.00381623 0)
(0.980446 -0.00442782 0)
(1.00603 0.000507528 0)
(1.00213 -0.0025097 0)
(1.00287 0.00442398 0)
(0.996551 0.000158386 0)
(0.997797 0.00856882 0)
(0.997646 -0.00276078 0)
(0.993017 0.000850829 0)
(0.99228 -0.00506498 0)
(0.991423 -0.00210729 0)
(0.991432 -0.00215225 0)
(0.992448 -0.00219877 0)
(0.992087 -0.000704261 0)
(0.991899 -0.000566904 0)
(0.990208 0.00101763 0)
(0.986018 0.00251317 0)
(0.99179 -0.00171505 0)
(1.00376 -0.00338381 0)
(0.997812 0.00827942 0)
(1.00968 0.00388055 0)
(0.991494 -0.00428022 0)
(1.00167 0.000284909 0)
(1.00383 -0.00245184 0)
(1.00077 0.00444458 0)
(0.998234 0.000318993 0)
(0.997691 0.00845991 0)
(0.998745 -0.00255532 0)
(0.994301 0.000760766 0)
(0.994532 -0.00484571 0)
(0.993657 -0.00224292 0)
(0.993209 -0.00202677 0)
(0.993515 -0.00232567 0)
(0.992277 -0.00056638 0)
(0.991622 -0.000513152 0)
(0.989821 0.00128838 0)
(0.986104 0.00313115 0)
(0.998054 -0.00168561 0)
(0.998917 -0.00341424 0)
(0.999568 0.00823991 0)
(1.00421 0.00388825 0)
(0.996864 -0.00417894 0)
(1.00079 0.000134759 0)
(1.00371 -0.00239894 0)
(1.00014 0.00444676 0)
(0.999214 0.000463985 0)
(0.998829 0.00833754 0)
(1.00002 -0.00235023 0)
(0.995936 0.000639631 0)
(0.996545 -0.00462928 0)
(0.995715 -0.00237904 0)
(0.994974 -0.00187722 0)
(0.994716 -0.00239206 0)
(0.992851 -0.000412525 0)
(0.99173 -0.000370978 0)
(0.989784 0.00150635 0)
(0.986388 0.00373082 0)
(1.00094 -0.00166129 0)
(0.996771 -0.00341902 0)
(0.999777 0.00820479 0)
(1.00219 0.00386278 0)
(0.999286 -0.00410723 0)
(1.00092 2.72097e-05 0)
(1.00308 -0.00233822 0)
(0.999865 0.00442418 0)
(0.9998 0.000591411 0)
(1.00018 0.00819145 0)
(1.00133 -0.00213714 0)
(0.99749 0.000498861 0)
(0.998132 -0.00440586 0)
(0.997246 -0.00251164 0)
(0.996282 -0.00171442 0)
(0.995664 -0.00240031 0)
(0.993461 -0.000263148 0)
(0.992036 -0.000145431 0)
(0.99002 0.00168644 0)
(0.986871 0.00429466 0)
(1.00202 -0.00163787 0)
(0.995839 -0.00340742 0)
(0.999367 0.0081639 0)
(1.00212 0.00381628 0)
(1.00037 -0.00404245 0)
(1.00101 -5.52338e-05 0)
(1.00233 -0.00226828 0)
(0.999586 0.00437879 0)
(1.00007 0.000701366 0)
(1.0013 0.00801643 0)
(1.00247 -0.00191466 0)
(0.998796 0.000348077 0)
(0.999253 -0.00416902 0)
(0.998225 -0.00263268 0)
(0.997036 -0.00154839 0)
(0.996243 -0.00235852 0)
(0.993948 -0.000131371 0)
(0.992416 0.00014006 0)
(0.990459 0.00184176 0)
(0.987546 0.00480104 0)
(1.0023 -0.00161181 0)
(0.995376 -0.00338477 0)
(0.998745 0.00810728 0)
(1.00299 0.00375375 0)
(1.00091 -0.00396633 0)
(1.0008 -0.000120562 0)
(1.00159 -0.00219191 0)
(0.99922 0.00431414 0)
(1.0001 0.0007964 0)
(1.00205 0.00781067 0)
(1.00333 -0.00168536 0)
(0.999795 0.00019489 0)
(0.999969 -0.00391662 0)
(0.998764 -0.00273329 0)
(0.997344 -0.0013894 0)
(0.996494 -0.00227557 0)
(0.994283 -2.99741e-05 0)
(0.992787 0.000461968 0)
(0.99101 0.00198554 0)
(0.988351 0.00522864 0)
(1.00229 -0.00158148 0)
(0.9951 -0.00335332 0)
(0.998098 0.00802943 0)
(1.00411 0.00367683 0)
(1.00123 -0.0038683 0)
(1.00039 -0.000171465 0)
(1.00091 -0.00211226 0)
(0.998793 0.00423421 0)
(0.999976 0.000879507 0)
(1.00247 0.00757566 0)
(1.0039 -0.00145373 0)
(1.0005 4.58145e-05 0)
(1.00038 -0.0036503 0)
(0.999014 -0.00280733 0)
(0.99738 -0.00124654 0)
(0.99653 -0.00215366 0)
(0.994498 3.34824e-05 0)
(0.99311 0.000807581 0)
(0.991583 0.00214121 0)
(0.989198 0.00556795 0)
(1.00222 -0.00154676 0)
(0.994924 -0.00331388 0)
(0.997541 0.00792958 0)
(1.00511 0.00358659 0)
(1.00147 -0.00374554 0)
(0.999925 -0.0002083 0)
(1.00034 -0.00203167 0)
(0.998371 0.00414309 0)
(0.999797 0.000952373 0)
(1.00265 0.00731596 0)
(1.00423 -0.00122296 0)
(1.00096 -9.6747e-05 0)
(1.0006 -0.0033752 0)
(0.999111 -0.00285068 0)
(0.9973 -0.00112301 0)
(0.996468 -0.00199734 0)
(0.994645 6.87425e-05 0)
(0.993378 0.00115067 0)
(0.992113 0.00232123 0)
(0.990014 0.00581561 0)
(1.00215 -0.00150817 0)
(0.99482 -0.0032673 0)
(0.997134 0.00781015 0)
(1.00583 0.00348478 0)
(1.00167 -0.00360062 0)
(0.999524 -0.000232592 0)
(0.999913 -0.0019513 0)
(0.99801 0.00404383 0)
(0.999634 0.00101754 0)
(1.0027 0.00703576 0)
(1.00438 -0.000996679 0)
(1.00124 -0.000228371 0)
(1.00069 -0.00309873 0)
(0.99915 -0.00286022 0)
(0.997201 -0.00101749 0)
(0.996388 -0.00181666 0)
(0.994765 9.25781e-05 0)
(0.993599 0.00145935 0)
(0.992574 0.00252317 0)
(0.990754 0.00597679 0)
(1.0021 -0.00146642 0)
(0.994779 -0.00321469 0)
(0.99688 0.00767476 0)
(1.00626 0.00337398 0)
(1.00183 -0.00343928 0)
(0.999236 -0.000243978 0)
(0.999626 -0.00187266 0)
(0.997741 0.0039392 0)
(0.999522 0.00107609 0)
(1.00269 0.00674096 0)
(1.00441 -0.000777537 0)
(1.00139 -0.000347368 0)
(1.00071 -0.00282667 0)
(0.999179 -0.0028365 0)
(0.997129 -0.00092981 0)
(0.996327 -0.00161603 0)
(0.994883 0.000116844 0)
(0.99379 0.00172537 0)
(0.992963 0.00274815 0)
(0.991406 0.00607129 0)
(1.00206 -0.00142233 0)
(0.994795 -0.00315702 0)
(0.996751 0.00752707 0)
(1.00645 0.0032566 0)
(1.00194 -0.00326712 0)
(0.999057 -0.000243583 0)
(0.999462 -0.0017954 0)
(0.997567 0.00383268 0)
(0.999463 0.001127 0)
(1.00265 0.00643906 0)
(1.00435 -0.000566798 0)
(1.00146 -0.000450377 0)
(1.00069 -0.0025638 0)
(0.999215 -0.00278311 0)
(0.997098 -0.000855673 0)
(0.996297 -0.00140407 0)
(0.995011 0.000153294 0)
(0.993966 0.00195688 0)
(0.993294 0.00298781 0)
(0.991978 0.00611403 0)
(1.00203 -0.00137669 0)
(0.994861 -0.00309501 0)
(0.99671 0.00736993 0)
(1.00648 0.00313524 0)
(1.00199 -0.00308941 0)
(0.998962 -0.000232679 0)
(0.999397 -0.00172077 0)
(0.997476 0.00372685 0)
(0.999446 0.00117173 0)
(1.00259 0.00613315 0)
(1.00422 -0.000364704 0)
(1.00147 -0.000537072 0)
(1.00065 -0.00231314 0)
(0.99926 -0.00270449 0)
(0.997104 -0.000787065 0)
(0.996296 -0.0011901 0)
(0.995154 0.000209312 0)
(0.994141 0.00216334 0)
(0.993585 0.00322838 0)
(0.992491 0.00611624 0)
(1.00199 -0.00133006 0)
(0.994967 -0.00302936 0)
(0.996729 0.00720537 0)
(1.0064 0.00301243 0)
(1.002 -0.00291118 0)
(0.998919 -0.000211035 0)
(0.999403 -0.00165214 0)
(0.997447 0.0036238 0)
(0.99946 0.00121148 0)
(1.00252 0.00582633 0)
(1.00405 -0.000172582 0)
(1.00144 -0.000609208 0)
(1.00059 -0.00207395 0)
(0.999312 -0.00260784 0)
(0.997141 -0.000720191 0)
(0.996318 -0.00097454 0)
(0.995313 0.000282886 0)
(0.994324 0.0023501 0)
(0.993853 0.00346272 0)
(0.992962 0.00609482 0)
(1.00195 -0.001283 0)
(0.995097 -0.0029602 0)
(0.996788 0.00703418 0)
(1.00626 0.00289077 0)
(1.00198 -0.00273627 0)
(0.998906 -0.000179052 0)
(0.999453 -0.00159055 0)
(0.99746 0.00352627 0)
(0.999493 0.00124481 0)
(1.00245 0.00552372 0)
(1.00385 9.24702e-06 0)
(1.00139 -0.000667077 0)
(1.00053 -0.00184502 0)
(0.999366 -0.00249749 0)
(0.997203 -0.000654314 0)
(0.99636 -0.000751434 0)
(0.995489 0.000366651 0)
(0.994522 0.00251723 0)
(0.994108 0.00369127 0)
(0.993406 0.00606715 0)
(1.0019 -0.00123595 0)
(0.995243 -0.00288773 0)
(0.996871 0.00685687 0)
(1.0061 0.00277183 0)
(1.00194 -0.00256629 0)
(0.998907 -0.000135646 0)
(0.999528 -0.00153684 0)
(0.997501 0.003435 0)
(0.999537 0.00127337 0)
(1.00239 0.00522589 0)
(1.00365 0.00018485 0)
(1.00132 -0.000715284 0)
(1.00046 -0.0016216 0)
(0.999419 -0.00237612 0)
(0.997284 -0.000590894 0)
(0.996415 -0.000519276 0)
(0.995678 0.000460219 0)
(0.994739 0.00266202 0)
(0.994358 0.00391287 0)
(0.993828 0.00604075 0)
(1.00185 -0.00118893 0)
(0.995397 -0.00281233 0)
(0.996968 0.00667337 0)
(1.00592 0.00265776 0)
(1.00189 -0.00240382 0)
(0.998914 -8.0881e-05 0)
(0.999614 -0.00149332 0)
(0.997556 0.00335073 0)
(0.999586 0.00129926 0)
(1.00233 0.00493039 0)
(1.00344 0.00036004 0)
(1.00125 -0.000757388 0)
(1.00039 -0.00140196 0)
(0.99947 -0.00224414 0)
(0.997381 -0.000528 0)
(0.99648 -0.000278478 0)
(0.995875 0.000565692 0)
(0.994975 0.00277818 0)
(0.994608 0.00412547 0)
(0.994231 0.00602128 0)
(1.00181 -0.00114256 0)
(0.995555 -0.00273322 0)
(0.99707 0.00648284 0)
(1.00573 0.00255033 0)
(1.00183 -0.00225092 0)
(0.998922 -1.36379e-05 0)
(0.999703 -0.00145925 0)
(0.99762 0.00327166 0)
(0.999634 0.00132392 0)
(1.00228 0.00463544 0)
(1.00322 0.000529224 0)
(1.00117 -0.000796037 0)
(1.00033 -0.0011908 0)
(0.999517 -0.00209525 0)
(0.997491 -0.000469138 0)
(0.996554 -2.9586e-05 0)
(0.996075 0.000690003 0)
(0.995231 0.0028619 0)
(0.994861 0.00432497 0)
(0.994614 0.0060152 0)
(1.00176 -0.00109695 0)
(0.995718 -0.00265039 0)
(0.997175 0.00628482 0)
(1.00554 0.00245008 0)
(1.00178 -0.00210837 0)
(0.99893 6.73832e-05 0)
(0.999792 -0.00143253 0)
(0.99769 0.00319376 0)
(0.999678 0.0013503 0)
(1.00224 0.00433787 0)
(1.00301 0.00069712 0)
(1.0011 -0.000832539 0)
(1.00027 -0.000992008 0)
(0.999559 -0.00192352 0)
(0.997615 -0.000422569 0)
(0.996638 0.000224571 0)
(0.996275 0.000841357 0)
(0.995505 0.00291218 0)
(0.995121 0.00449799 0)
(0.994973 0.00602806 0)
(1.0017 -0.00105224 0)
(0.995883 -0.00256349 0)
(0.997281 0.00607822 0)
(1.00536 0.00235851 0)
(1.00173 -0.00197738 0)
(0.998937 0.000159662 0)
(0.99988 -0.00141234 0)
(0.997764 0.00311795 0)
(0.999717 0.00138056 0)
(1.0022 0.0040337 0)
(1.00281 0.000873728 0)
(1.00102 -0.000860414 0)
(1.00023 -0.00081034 0)
(0.999596 -0.00172496 0)
(0.99775 -0.00038288 0)
(0.996734 0.000474057 0)
(0.99647 0.00102335 0)
(0.995792 0.00293443 0)
(0.995392 0.00462601 0)
(0.99531 0.00606317 0)
(1.00165 -0.00100888 0)
(0.996051 -0.00247174 0)
(0.997388 0.00586232 0)
(1.00517 0.00227773 0)
(1.00168 -0.00185956 0)
(0.998943 0.0002634 0)
(0.999966 -0.00139451 0)
(0.997842 0.00303854 0)
(0.99975 0.00142274 0)
(1.00217 0.00372351 0)
(1.0026 0.00105556 0)
(1.00094 -0.000873846 0)
(1.00019 -0.000654215 0)
(0.999629 -0.00149274 0)
(0.997896 -0.000341866 0)
(0.996847 0.000702859 0)
(0.996659 0.0012361 0)
(0.996088 0.00294989 0)
(0.995679 0.00469794 0)
(0.995629 0.00611322 0)
(1.0016 -0.00096712 0)
(0.996221 -0.0023747 0)
(0.997495 0.00563655 0)
(1.00498 0.00220928 0)
(1.00163 -0.00175601 0)
(0.998947 0.000378217 0)
(1.00005 -0.00138004 0)
(0.997924 0.00295101 0)
(0.999774 0.00147948 0)
(1.00215 0.00340519 0)
(1.0024 0.00123381 0)
(1.00086 -0.00086594 0)
(1.00017 -0.000530733 0)
(0.999658 -0.00122992 0)
(0.998048 -0.00029112 0)
(0.996978 0.000900473 0)
(0.996843 0.00147083 0)
(0.996385 0.00297942 0)
(0.995984 0.00471509 0)
(0.995938 0.00615107 0)
(1.00155 -0.000927821 0)
(0.996392 -0.00227151 0)
(0.997604 0.0054009 0)
(1.00479 0.00215276 0)
(1.00158 -0.00166508 0)
(0.998951 0.000498574 0)
(1.00013 -0.00136259 0)
(0.998013 0.00285123 0)
(0.99979 0.00154974 0)
(1.00214 0.00307949 0)
(1.00221 0.00139527 0)
(1.00078 -0.000826242 0)
(1.00016 -0.000444029 0)
(0.999687 -0.000946551 0)
(0.998204 -0.000217488 0)
(0.997131 0.00106051 0)
(0.997026 0.00171246 0)
(0.996678 0.00303181 0)
(0.996305 0.00468913 0)
(0.996248 0.00614291 0)
(1.00149 -0.000890099 0)
(0.996564 -0.00216275 0)
(0.997713 0.00515381 0)
(1.0046 0.00210947 0)
(1.00154 -0.00158559 0)
(0.998952 0.00062327 0)
(1.00021 -0.00133435 0)
(0.998109 0.00272884 0)
(0.999798 0.0016405 0)
(1.00212 0.00275741 0)
(1.00203 0.00153915 0)
(1.00068 -0.000740148 0)
(1.00016 -0.000387815 0)
(0.999719 -0.000654353 0)
(0.99836 -0.000108611 0)
(0.997304 0.00118375 0)
(0.997212 0.00194228 0)
(0.996962 0.00310847 0)
(0.996633 0.00463935 0)
(0.996569 0.00607701 0)
(1.00144 -0.000855229 0)
(0.996736 -0.002047 0)
(0.997824 0.00489493 0)
(1.0044 0.0020797 0)
(1.0015 -0.00151547 0)
(0.998952 0.000749038 0)
(1.00029 -0.00129347 0)
(0.998214 0.00258249 0)
(0.999797 0.00175043 0)
(1.00212 0.00244442 0)
(1.00186 0.00165499 0)
(1.00059 -0.000598248 0)
(1.00018 -0.000352108 0)
(0.999759 -0.000369341 0)
(0.998511 3.84115e-05 0)
(0.997495 0.00128168 0)
(0.997408 0.00214574 0)
(0.997235 0.00320623 0)
(0.996961 0.00459185 0)
(0.996901 0.00596916 0)
(1.00138 -0.000823664 0)
(0.996907 -0.00192378 0)
(0.997936 0.00462617 0)
(1.00421 0.00205892 0)
(1.00146 -0.00145178 0)
(0.99895 0.00086872 0)
(1.00036 -0.00123067 0)
(0.99833 0.00240927 0)
(0.999789 0.00187066 0)
(1.00211 0.00215129 0)
(1.00171 0.00172839 0)
(1.00048 -0.000409087 0)
(1.00021 -0.000327232 0)
(0.999811 -0.000106202 0)
(0.998657 0.000226135 0)
(0.997699 0.00136865 0)
(0.997615 0.00231706 0)
(0.997501 0.00331391 0)
(0.997282 0.00456121 0)
(0.997239 0.0058448 0)
(1.00133 -0.000794407 0)
(0.997077 -0.00179513 0)
(0.998049 0.00434672 0)
(1.00403 0.00204513 0)
(1.00143 -0.00139112 0)
(0.998948 0.000977619 0)
(1.00042 -0.00114088 0)
(0.998456 0.00221164 0)
(0.999777 0.00199352 0)
(1.00211 0.00189047 0)
(1.00158 0.00175696 0)
(1.00037 -0.000185618 0)
(1.00025 -0.000297075 0)
(0.99988 0.000125207 0)
(0.998799 0.000449021 0)
(0.997911 0.0014497 0)
(0.997837 0.00245148 0)
(0.997762 0.00341859 0)
(0.997595 0.00454196 0)
(0.997574 0.00572357 0)
(1.00127 -0.000768275 0)
(0.997243 -0.00166027 0)
(0.998163 0.00405979 0)
(1.00384 0.00203485 0)
(1.00139 -0.00132628 0)
(0.998947 0.0010689 0)
(1.00047 -0.00102451 0)
(0.998592 0.00200091 0)
(0.999762 0.00211191 0)
(1.0021 0.00167318 0)
(1.00148 0.00174383 0)
(1.00026 5.79157e-05 0)
(1.00029 -0.000243965 0)
(0.999968 0.000322619 0)
(0.998936 0.00069436 0)
(0.998124 0.00153381 0)
(0.998072 0.00254873 0)
(0.998024 0.00351832 0)
(0.997899 0.00452865 0)
(0.997901 0.00561191 0)
(1.00122 -0.000745844 0)
(0.997405 -0.00151916 0)
(0.998278 0.00377186 0)
(1.00365 0.00202344 0)
(1.00136 -0.00125405 0)
(0.998948 0.00113638 0)
(1.00051 -0.000878737 0)
(0.998737 0.00177878 0)
(0.999747 0.00221114 0)
(1.00209 0.00150667 0)
(1.0014 0.00169878 0)
(1.00015 0.000316472 0)
(1.00034 -0.00015893 0)
(1.00008 0.000482259 0)
(0.999074 0.000947619 0)
(0.998333 0.00163127 0)
(0.998322 0.00260673 0)
(0.998289 0.00360889 0)
(0.998194 0.00452654 0)
(0.998217 0.00550437 0)
(1.00116 -0.000725934 0)
(0.997562 -0.00137517 0)
(0.998393 0.00348419 0)
(1.00347 0.00200318 0)
(1.00133 -0.00116676 0)
(0.998953 0.00117556 0)
(1.00054 -0.000706568 0)
(0.998886 0.00156234 0)
(0.999737 0.00227824 0)
(1.00206 0.00138706 0)
(1.00135 0.00163086 0)
(1.00004 0.000578584 0)
(1.00037 -3.78285e-05 0)
(1.00021 0.000608371 0)
(0.999216 0.00119619 0)
(0.998532 0.00175326 0)
(0.998584 0.00262658 0)
(0.998565 0.00367025 0)
(0.99848 0.00454323 0)
(0.998522 0.00539787 0)
(1.00111 -0.000708283 0)
(0.997713 -0.00122974 0)
(0.998506 0.00320073 0)
(1.0033 0.00196374 0)
(1.0013 -0.00105643 0)
(0.998961 0.00118601 0)
(1.00056 -0.000518558 0)
(0.999038 0.0013651 0)
(0.999733 0.00230971 0)
(1.00204 0.00131135 0)
(1.00132 0.00155322 0)
(0.999952 0.000828733 0)
(1.0004 0.000115646 0)
(1.00036 0.000707194 0)
(0.999368 0.00142661 0)
(0.998718 0.00190835 0)
(0.998849 0.0026279 0)
(0.998858 0.00368314 0)
(0.998761 0.00457195 0)
(0.998812 0.00530484 0)
(1.00105 -0.000692813 0)
(0.997857 -0.00108364 0)
(0.998617 0.00292727 0)
(1.00313 0.00190082 0)
(1.00127 -0.000918749 0)
(0.998973 0.00117337 0)
(1.00056 -0.000324093 0)
(0.999188 0.00119852 0)
(0.999736 0.00230728 0)
(1.002 0.00127186 0)
(1.00131 0.00147737 0)
(0.999875 0.00106335 0)
(1.00043 0.000294357 0)
(1.00052 0.000785216 0)
(0.999536 0.00162509 0)
(0.998889 0.00208882 0)
(0.999107 0.00263714 0)
(0.999171 0.00364597 0)
(0.999047 0.00458729 0)
(0.999085 0.00524069 0)
(1.001 -0.000678211 0)
(0.997994 -0.000941729 0)
(0.998722 0.00267357 0)
(1.00297 0.00180998 0)
(1.00123 -0.000755359 0)
(0.998988 0.00114595 0)
(1.00056 -0.000135712 0)
(0.999334 0.00107721 0)
(0.999746 0.00228006 0)
(1.00196 0.0012544 0)
(1.00133 0.00141441 0)
(0.999817 0.00127795 0)
(1.00043 0.000492146 0)
(1.00069 0.000846597 0)
(0.999726 0.00178783 0)
(0.999049 0.00228733 0)
(0.999347 0.00267381 0)
(0.999498 0.00357394 0)
(0.999348 0.00456499 0)
(0.999345 0.00520055 0)
(1.00094 -0.000664151 0)
(0.998124 -0.000807113 0)
(0.998821 0.00244389 0)
(1.00281 0.0016879 0)
(1.0012 -0.00057545 0)
(0.999003 0.00111506 0)
(1.00055 3.35899e-05 0)
(0.999473 0.00100028 0)
(0.999762 0.00224222 0)
(1.00192 0.00124582 0)
(1.00136 0.00135625 0)
(0.999777 0.0014781 0)
(1.00043 0.0007086 0)
(1.00087 0.000892093 0)
(0.999942 0.00190266 0)
(0.999206 0.00249087 0)
(0.999561 0.00274459 0)
(0.999828 0.00348521 0)
(0.999673 0.00449683 0)
(0.999602 0.00516049 0)
(1.00089 -0.000649286 0)
(0.998247 -0.000679946 0)
(0.998911 0.00224042 0)
(1.00267 0.0015331 0)
(1.00116 -0.00038941 0)
(0.999015 0.00109764 0)
(1.00054 0.000170766 0)
(0.999607 0.000951044 0)
(0.999781 0.00220447 0)
(1.00187 0.0012456 0)
(1.00142 0.0012968 0)
(0.999761 0.00166216 0)
(1.00041 0.000944649 0)
(1.00104 0.000937003 0)
(1.00019 0.00196421 0)
(0.999369 0.00267959 0)
(0.999744 0.00285107 0)
(1.00015 0.00339757 0)
(1.00002 0.00438672 0)
(0.99987 0.00509867 0)
(1.00084 -0.000633354 0)
(0.998364 -0.00056309 0)
(0.998989 0.0020689 0)
(1.00254 0.00135556 0)
(1.00113 -0.000216132 0)
(0.999023 0.00110852 0)
(1.00052 0.000272902 0)
(0.999734 0.00092182 0)
(0.999802 0.00218162 0)
(1.00182 0.00125548 0)
(1.00149 0.00122711 0)
(0.99977 0.00181896 0)
(1.00037 0.00120515 0)
(1.0012 0.00100394 0)
(1.00046 0.00197799 0)
(0.99955 0.00283458 0)
(0.999897 0.00299155 0)
(1.00044 0.00333036 0)
(1.00039 0.00424109 0)
(1.00016 0.0050086 0)
(1.00079 -0.000614047 0)
(0.998475 -0.000461552 0)
(0.999053 0.0019262 0)
(1.00241 0.00116447 0)
(1.0011 -6.84288e-05 0)
(0.999024 0.00115833 0)
(1.0005 0.000352614 0)
(0.99986 0.000902817 0)
(0.999824 0.00217993 0)
(1.00175 0.00128662 0)
(1.00157 0.00114249 0)
(0.999812 0.00193609 0)
(1.00032 0.00148273 0)
(1.00132 0.0011028 0)
(1.00075 0.00195114 0)
(0.99976 0.00293549 0)
(1.00003 0.00315297 0)
(1.0007 0.00330593 0)
(1.00076 0.00407169 0)
(1.00046 0.00489116 0)
(1.00073 -0.000591388 0)
(0.998581 -0.000376451 0)
(0.999104 0.00181107 0)
(1.00228 0.000968677 0)
(1.00109 4.26656e-05 0)
(0.999018 0.00124766 0)
(1.00046 0.000419931 0)
(0.999983 0.000869022 0)
(0.99985 0.00219383 0)
(1.00167 0.00134904 0)
(1.00166 0.00105966 0)
(0.999892 0.00200183 0)
(1.00027 0.00175857 0)
(1.00142 0.00124062 0)
(1.00105 0.00190774 0)
(1.00001 0.00297393 0)
(1.00015 0.00330667 0)
(1.00091 0.00333329 0)
(1.00112 0.00389789 0)
(1.00079 0.00473986 0)
(1.00068 -0.000563047 0)
(0.998684 -0.000309397 0)
(0.99914 0.00172503 0)
(1.00216 0.000783908 0)
(1.00109 0.00010665 0)
(0.999005 0.00136261 0)
(1.00041 0.000493022 0)
(1.00011 0.000811888 0)
(0.999883 0.00221014 0)
(1.00157 0.00145211 0)
(1.00174 0.000990482 0)
(1.00001 0.00200505 0)
(1.00022 0.00201497 0)
(1.00147 0.0014243 0)
(1.00134 0.00187558 0)
(1.00029 0.00295613 0)
(1.00027 0.00342541 0)
(1.00106 0.0034035 0)
(1.00146 0.00374702 0)
(1.00115 0.00454795 0)
(1.00063 -0.00052826 0)
(0.998783 -0.000264041 0)
(0.999162 0.00166458 0)
(1.00204 0.000618616 0)
(1.0011 0.000114541 0)
(0.998992 0.00148762 0)
(1.00034 0.000594787 0)
(1.00023 0.000737767 0)
(0.999931 0.0022067 0)
(1.00146 0.00159762 0)
(1.00181 0.000956764 0)
(1.00016 0.00194489 0)
(1.00019 0.0022242 0)
(1.00148 0.00164292 0)
(1.0016 0.0018731 0)
(1.0006 0.00289608 0)
(1.00042 0.00349346 0)
(1.00117 0.00349625 0)
(1.00174 0.00364423 0)
(1.00151 0.0043202 0)
(1.00058 -0.000487783 0)
(0.99888 -0.000241511 0)
(0.999173 0.00162444 0)
(1.00192 0.000486643 0)
(1.00113 7.06145e-05 0)
(0.998984 0.00160004 0)
(1.00024 0.000741349 0)
(1.00034 0.000660713 0)
(1 0.00217384 0)
(1.00133 0.00177064 0)
(1.00186 0.000976725 0)
(1.00034 0.00184558 0)
(1.0002 0.00236618 0)
(1.00146 0.00186885 0)
(1.00183 0.00190456 0)
(1.00093 0.00281161 0)
(1.00061 0.00350458 0)
(1.00126 0.00358452 0)
(1.00196 0.00360392 0)
(1.00188 0.00408453 0)
(1.00053 -0.000439378 0)
(0.998977 -0.000238439 0)
(0.999175 0.00159439 0)
(1.00178 0.000394652 0)
(1.00117 -8.29635e-06 0)
(0.99899 0.00167812 0)
(1.00012 0.000936502 0)
(1.00043 0.000602837 0)
(1.00009 0.00209375 0)
(1.0012 0.00194554 0)
(1.00186 0.00106237 0)
(1.00054 0.00174331 0)
(1.00025 0.00243859 0)
(1.00143 0.00208451 0)
(1.002 0.00197131 0)
(1.00125 0.00272417 0)
(1.00082 0.00346575 0)
(1.00134 0.00364037 0)
(1.00211 0.0036157 0)
(1.0022 0.00388776 0)
(1.00048 -0.000384539 0)
(0.999073 -0.000254925 0)
(0.999172 0.0015704 0)
(1.00163 0.000344706 0)
(1.00123 -0.000114415 0)
(0.99902 0.00170443 0)
(0.999983 0.00116641 0)
(1.0005 0.000582383 0)
(1.00021 0.0019658 0)
(1.00108 0.00209496 0)
(1.00183 0.00121014 0)
(1.00072 0.0016648 0)
(1.00034 0.00244707 0)
(1.00139 0.0022714 0)
(1.00213 0.00206903 0)
(1.00156 0.00264808 0)
(1.00107 0.00339076 0)
(1.00144 0.0036466 0)
(1.00221 0.0036386 0)
(1.00246 0.00376103 0)
(1.00043 -0.000325753 0)
(0.999171 -0.000284507 0)
(0.999169 0.00154289 0)
(1.00147 0.000346222 0)
(1.00129 -0.000237539 0)
(0.999081 0.00167256 0)
(0.999834 0.00140769 0)
(1.00052 0.000616214 0)
(1.00034 0.00181039 0)
(1.00099 0.00220334 0)
(1.00177 0.00139747 0)
(1.00089 0.00162735 0)
(1.00046 0.00241262 0)
(1.00137 0.00240944 0)
(1.00222 0.0021827 0)
(1.00184 0.00259069 0)
(1.00133 0.00329532 0)
(1.00156 0.00361366 0)
(1.00229 0.00363561 0)
(1.00264 0.00369537 0)
(1.00039 -0.000262848 0)
(0.999269 -0.000320557 0)
(0.999171 0.00150255 0)
(1.00129 0.000389426 0)
(1.00135 -0.000350986 0)
(0.999178 0.00157628 0)
(0.999688 0.00163679 0)
(1.00051 0.000720555 0)
(1.00048 0.00165394 0)
(1.00093 0.00225026 0)
(1.00168 0.0015962 0)
(1.00103 0.0016415 0)
(1.0006 0.00236926 0)
(1.00137 0.0025066 0)
(1.00227 0.00230044 0)
(1.00209 0.00255713 0)
(1.00159 0.00318286 0)
(1.0017 0.00355397 0)
(1.00236 0.00359502 0)
(1.00277 0.00364687 0)
(1.00034 -0.000198707 0)
(0.999367 -0.000356563 0)
(0.999184 0.00144394 0)
(1.0011 0.000466205 0)
(1.0014 -0.000435397 0)
(0.99931 0.00141879 0)
(0.99956 0.00183096 0)
(1.00045 0.00088158 0)
(1.00062 0.00152452 0)
(1.00092 0.00224043 0)
(1.00159 0.00178346 0)
(1.00113 0.00169786 0)
(1.00075 0.0023193 0)
(1.00139 0.002566 0)
(1.0023 0.00240855 0)
(1.00229 0.00255219 0)
(1.00185 0.00306267 0)
(1.00185 0.00346892 0)
(1.00244 0.00353235 0)
(1.00287 0.003582 0)
(1.0003 -0.000137256 0)
(0.999463 -0.000385354 0)
(0.99921 0.00136363 0)
(1.0009 0.000568276 0)
(1.00142 -0.000478156 0)
(0.999476 0.0012258 0)
(0.999463 0.00196322 0)
(1.00036 0.00108625 0)
(1.00073 0.00142913 0)
(1.00093 0.00218777 0)
(1.0015 0.00194553 0)
(1.00119 0.00179056 0)
(1.0009 0.00227512 0)
(1.00143 0.00258893 0)
(1.00232 0.00250134 0)
(1.00244 0.00257237 0)
(1.0021 0.00295713 0)
(1.00202 0.0033534 0)
(1.00252 0.00345321 0)
(1.00295 0.00348926 0)
(1.00026 -7.9946e-05 0)
(0.999556 -0.000403772 0)
(0.999251 0.00125964 0)
(1.00071 0.000682979 0)
(1.00143 -0.00046648 0)
(0.999665 0.00101373 0)
(0.999408 0.00201941 0)
(1.00024 0.00131571 0)
(1.00081 0.00139341 0)
(1.00098 0.00210317 0)
(1.00143 0.00206565 0)
(1.00122 0.00190112 0)
(1.00103 0.00225608 0)
(1.00149 0.00258273 0)
(1.00234 0.00256921 0)
(1.00255 0.00260491 0)
(1.00231 0.00288052 0)
(1.00219 0.00322186 0)
(1.0026 0.003352 0)
(1.00303 0.00337903 0)
(1.00022 -2.86722e-05 0)
(0.999643 -0.000405708 0)
(0.99931 0.00113236 0)
(1.00052 0.000796696 0)
(1.0014 -0.000395554 0)
(0.999868 0.000798502 0)
(0.999405 0.00199958 0)
(1.00012 0.00153041 0)
(1.00085 0.00142423 0)
(1.00105 0.00201613 0)
(1.00139 0.00213917 0)
(1.00124 0.00201319 0)
(1.00115 0.00225607 0)
(1.00157 0.00256754 0)
(1.00237 0.00260622 0)
(1.00264 0.00264059 0)
(1.00248 0.0028329 0)
(1.00235 0.00310099 0)
(1.00269 0.00322681 0)
(1.00309 0.00325798 0)
(1.00019 1.34423e-05 0)
(0.999721 -0.00038887 0)
(0.999383 0.000992908 0)
(1.00035 0.00089354 0)
(1.00135 -0.000278928 0)
(1.00007 0.000603894 0)
(0.999453 0.00191096 0)
(0.999997 0.00171522 0)
(1.00086 0.00149406 0)
(1.00112 0.00194442 0)
(1.00137 0.00217073 0)
(1.00124 0.00212333 0)
(1.00124 0.0022682 0)
(1.00165 0.00254486 0)
(1.00241 0.00262179 0)
(1.00271 0.00266249 0)
(1.00261 0.00280403 0)
(1.00248 0.0030042 0)
(1.00277 0.00309246 0)
(1.00315 0.00312001 0)
(1.00016 4.74523e-05 0)
(0.99979 -0.000355502 0)
(0.99947 0.000849789 0)
(1.0002 0.000963301 0)
(1.00127 -0.000129003 0)
(1.00026 0.000451605 0)
(0.999552 0.00177128 0)
(0.999901 0.00185223 0)
(1.00083 0.00159292 0)
(1.00118 0.00189684 0)
(1.00139 0.0021688 0)
(1.00124 0.00220952 0)
(1.00131 0.002304 0)
(1.00173 0.00250982 0)
(1.00245 0.00261655 0)
(1.00278 0.00266909 0)
(1.00272 0.00277844 0)
(1.00258 0.00293411 0)
(1.00283 0.00297751 0)
(1.0032 0.00297249 0)
(1.00014 7.28883e-05 0)
(0.999848 -0.000305754 0)
(0.999566 0.000712588 0)
(1.00008 0.00100157 0)
(1.00117 3.70407e-05 0)
(1.00042 0.000348901 0)
(0.999691 0.00160641 0)
(0.99984 0.00192053 0)
(1.00079 0.00169931 0)
(1.00123 0.00187514 0)
(1.00142 0.0021553 0)
(1.00126 0.00226072 0)
(1.00135 0.00234533 0)
(1.00179 0.00248799 0)
(1.0025 0.00257911 0)
(1.00284 0.00265816 0)
(1.00282 0.00274524 0)
(1.00266 0.00287291 0)
(1.00286 0.00289124 0)
(1.00323 0.00283212 0)
(1.00011 8.95954e-05 0)
(0.999894 -0.000244428 0)
(0.999667 0.000591189 0)
(0.999985 0.00100297 0)
(1.00105 0.000209666 0)
(1.00056 0.000307327 0)
(0.999858 0.00143285 0)
(0.999818 0.00193182 0)
(1.00073 0.00179153 0)
(1.00125 0.00186837 0)
(1.00147 0.00213144 0)
(1.00128 0.00230009 0)
(1.00139 0.00236399 0)
(1.00184 0.00247301 0)
(1.00255 0.00253126 0)
(1.0029 0.0026151 0)
(1.0029 0.00270688 0)
(1.00273 0.00280737 0)
(1.00286 0.00282724 0)
(1.00321 0.00272164 0)
(1.0001 0.000100336 0)
(0.999929 -0.000177753 0)
(0.999767 0.000487396 0)
(0.999921 0.000977112 0)
(1.00093 0.000372831 0)
(1.00065 0.000324134 0)
(1.00004 0.00126842 0)
(0.999837 0.0018981 0)
(1.00067 0.0018615 0)
(1.00126 0.00187611 0)
(1.00152 0.00208858 0)
(1.00131 0.0023246 0)
(1.00141 0.00239151 0)
(1.00186 0.0024408 0)
(1.00259 0.00248429 0)
(1.00296 0.00254599 0)
(1.00297 0.00264733 0)
(1.00278 0.00273688 0)
(1.00284 0.0027663 0)
(1.00315 0.0026518 0)
(1.00008 0.000105 0)
(0.999952 -0.000109587 0)
(0.999863 0.000407381 0)
(0.999886 0.000934906 0)
(1.00082 0.000506338 0)
(1.00071 0.000372122 0)
(1.00021 0.00113291 0)
(0.999893 0.00182731 0)
(1.00062 0.00190077 0)
(1.00125 0.0018902 0)
(1.00158 0.0020474 0)
(1.00136 0.00230489 0)
(1.00141 0.00243006 0)
(1.00187 0.00241748 0)
(1.00261 0.00241476 0)
(1.00301 0.00246714 0)
(1.00305 0.00256271 0)
(1.00284 0.0026577 0)
(1.00282 0.00269781 0)
(1.00306 0.00260659 0)
(1.00008 0.000105977 0)
(0.999966 -4.53316e-05 0)
(0.999951 0.00035099 0)
(0.999876 0.000880892 0)
(1.00071 0.000615901 0)
(1.00075 0.000439138 0)
(1.00038 0.00103377 0)
(0.999977 0.00173811 0)
(1.00059 0.00191188 0)
(1.00123 0.00189326 0)
(1.00162 0.00201214 0)
(1.00142 0.00226184 0)
(1.00142 0.00243617 0)
(1.00183 0.00243047 0)
(1.00261 0.00234887 0)
(1.00306 0.00236947 0)
(1.00312 0.0024703 0)
(1.00291 0.00256226 0)
(1.00282 0.00261838 0)
(1.00295 0.00255943 0)