/*--------------------------------*- C++ -*----------------------------------*\
| =========                 |                                                 |
| \\      /  F ield         | OpenFOAM: The Open Source CFD Toolbox           |
|  \\    /   O peration     | Version:  2106                                  |
|   \\  /    A nd           | Website:  www.openfoam.com                      |
|    \\/     M anipulation  |                                                 |
\*---------------------------------------------------------------------------*/
FoamFile
{
    version     2.0;
    format      ascii;
    arch        "LSB;label=32;scalar=64";
    class       volScalarField;
    location    "0.615";
    object      p;
}
// * * * * * * * * * * * * * * * * * * * * * * * * * * * * * * * * * * * * * //

dimensions      [0 2 -2 0 0 0 0];

internalField   nonuniform List<scalar> 
9600
(
-7.79794e-11
9.85702e-05
-0.00166357
-0.000629985
8.00899e-06
0.000108782
-0.000545924
0.000731706
-0.000521118
0.000378552
0.000164544
0.00122004
0.00130221
0.00142296
0.00148398
0.00273914
0.00302602
0.00540137
0.00619532
0.0107696
-2.02399e-07
9.56195e-05
-0.00165398
-0.000640253
2.32574e-06
0.000117565
-0.000544112
0.000729954
-0.000518699
0.000379322
0.000169522
0.00121511
0.00130251
0.0014166
0.00148985
0.00272841
0.00304459
0.00532514
0.00633257
0.0103458
-8.35369e-07
9.18423e-05
-0.00164202
-0.000652302
-6.69844e-07
0.000127888
-0.000543273
0.000727883
-0.000512716
0.000379331
0.000174482
0.00121093
0.0013044
0.00140852
0.00150035
0.00271788
0.00306658
0.00525942
0.00638805
0.00983086
-2.02071e-06
8.64927e-05
-0.00163025
-0.000658715
-2.09906e-06
0.000136013
-0.000542591
0.000726387
-0.000503511
0.000378589
0.000177949
0.00120943
0.00130502
0.00139833
0.00151289
0.00270282
0.00308947
0.00518077
0.00640872
0.00937069
-3.97846e-06
7.90977e-05
-0.00161643
-0.000660139
-4.33855e-06
0.000142266
-0.000541262
0.000724444
-0.000491466
0.000376132
0.000178634
0.00120748
0.00130351
0.00138544
0.00152668
0.00268353
0.00311207
0.00509438
0.0064072
0.00895322
-6.74963e-06
6.99858e-05
-0.00159959
-0.000658138
-8.43606e-06
0.000147168
-0.00053941
0.000721543
-0.000477414
0.000371103
0.000177511
0.00120367
0.00130131
0.0013701
0.00154182
0.00266026
0.00313465
0.00500264
0.00638215
0.00856401
-1.02076e-05
5.96206e-05
-0.00157989
-0.000654154
-1.48021e-05
0.000150977
-0.000537122
0.000717868
-0.00046231
0.000363817
0.000175929
0.00119801
0.00129995
0.00135233
0.00155791
0.00263398
0.00315568
0.0049067
0.00633111
0.00819887
-1.41678e-05
4.83999e-05
-0.0015578
-0.000649454
-2.31665e-05
0.000154106
-0.000534326
0.000713667
-0.000446693
0.000354993
0.000175062
0.0011906
0.00130016
0.001332
0.00157484
0.00260522
0.00317288
0.00480795
0.00625204
0.00785654
-1.84498e-05
3.66228e-05
-0.00153384
-0.000644838
-3.28473e-05
0.000156908
-0.000530959
0.000709045
-0.000430719
0.000344999
0.00017556
0.00118138
0.00130226
0.00130918
0.00159224
0.00257446
0.00318395
0.00470759
0.0061451
0.0075299
-2.29165e-05
2.4462e-05
-0.00150845
-0.000640646
-4.3099e-05
0.000159529
-0.000527001
0.000703983
-0.000414365
0.000333887
0.000177758
0.00117018
0.00130636
0.00128405
0.00160928
0.00254249
0.00318679
0.00460653
0.00601182
0.00721418
-2.74888e-05
1.19907e-05
-0.00148192
-0.000636938
-5.33292e-05
0.000162001
-0.000522457
0.000698409
-0.00039752
0.000321557
0.000181823
0.00115689
0.00131231
0.0012569
0.00162493
0.00251035
0.00317965
0.00450511
0.00585438
0.00690465
-3.21306e-05
-7.64158e-07
-0.00145437
-0.000633687
-6.31579e-05
0.000164321
-0.00051733
0.000692232
-0.000380025
0.00030784
0.000187829
0.00114142
0.00131982
0.00122816
0.00163803
0.00247897
0.00316112
0.00440292
0.00567598
0.00659731
-3.68228e-05
-1.37951e-05
-0.00142583
-0.00063088
-7.23857e-05
0.000166526
-0.000511626
0.000685367
-0.000361729
0.000292541
0.000195778
0.00112381
0.00132839
0.00119851
0.00164728
0.00244905
0.00313032
0.0042987
0.00548084
0.00628915
-4.15493e-05
-2.71144e-05
-0.00139631
-0.000628545
-8.0941e-05
0.000168619
-0.000505366
0.000677731
-0.00034251
0.000275447
0.000205613
0.00110421
0.00133739
0.00116874
0.00165142
0.00242088
0.00308694
0.00419265
0.00527361
0.0059785
-4.62945e-05
-4.07546e-05
-0.00136583
-0.000626746
-8.88344e-05
0.000170648
-0.000498595
0.000669249
-0.000322298
0.000256407
0.000217225
0.00108292
0.00134606
0.00113958
0.00164941
0.0023943
0.00303151
0.00407711
0.00505832
0.00566488
-5.10428e-05
-5.4759e-05
-0.00133441
-0.000625554
-9.61219e-05
0.000172691
-0.00049137
0.00065985
-0.000301083
0.000235371
0.000230418
0.0010603
0.00135361
0.00111159
0.00164052
0.0023685
0.00296557
0.00395178
0.00483755
0.0053487
-5.57797e-05
-6.91703e-05
-0.00130207
-0.00062503
-0.000102882
0.000174848
-0.000483772
0.000649503
-0.000278909
0.000212353
0.000244914
0.00103681
0.00135928
0.00108516
0.00162438
0.00234213
0.00289071
0.00381534
0.00461292
0.00503114
-6.04916e-05
-8.40229e-05
-0.00126886
-0.000625214
-0.000109205
0.000177245
-0.000475919
0.000638199
-0.000255847
0.000187436
0.00026036
0.0010129
0.00136238
0.00106039
0.001601
0.00231367
0.00280796
0.00366676
0.0043858
0.0047141
-6.51658e-05
-9.93374e-05
-0.00123484
-0.000626111
-0.0001152
0.000180037
-0.000467933
0.000625927
-0.000231979
0.000160777
0.000276371
0.00098896
0.00136218
0.0010371
0.00157052
0.00228169
0.0027179
0.00350624
0.00415731
0.00439994
-6.97927e-05
-0.000115116
-0.00120008
-0.000627681
-0.000120996
0.000183411
-0.000459948
0.000612694
-0.000207413
0.00013253
0.00029261
0.000965255
0.00135525
0.00101502
0.00153289
0.00224491
0.00262103
0.00333429
0.0039279
0.00409118
-7.43663e-05
-0.000131347
-0.00116469
-0.000629852
-0.000126754
0.000187557
-0.000452109
0.000598522
-0.000182246
0.000102809
0.000308856
0.000942047
0.00134856
0.000993898
0.0014878
0.00220206
0.00251816
0.00315128
0.00369719
0.00379043
-7.88817e-05
-0.000147998
-0.00112879
-0.000632517
-0.000132658
0.000192549
-0.000444537
0.000583365
-0.000156515
7.16508e-05
0.000324906
0.000919544
0.00133837
0.000973544
0.00143481
0.00215196
0.00241052
0.00295769
0.00346405
0.00350026
-8.33399e-05
-0.000165015
-0.00109253
-0.000635532
-0.000138907
0.000199103
-0.000437305
0.00056711
-0.000130243
3.90703e-05
0.000340576
0.000897853
0.00132408
0.000953778
0.00137367
0.00209377
0.00229939
0.00275411
0.00322661
0.0032226
-8.77504e-05
-0.000182321
-0.0010561
-0.000638722
-0.000145722
0.000207171
-0.00043039
0.000549643
-0.000104886
5.02565e-06
0.000355763
0.000877183
0.00130488
0.000934566
0.00130438
0.00202641
0.00218624
0.00254193
0.00298246
0.00295805
-9.21284e-05
-0.000199811
-0.00101971
-0.000641901
-0.000153337
0.000216907
-0.000423698
0.000530757
-7.69906e-05
-3.07213e-05
0.000370172
0.000858098
0.00127952
0.000915959
0.00122713
0.0019473
0.00207397
0.00232458
0.00272926
0.00270497
-9.65011e-05
-0.000217342
-0.000983627
-0.000644867
-0.000161945
0.000228408
-0.00041706
0.00051008
-4.74177e-05
-6.84711e-05
0.000383268
0.000841538
0.00124668
0.000897348
0.0011432
0.00185409
0.00196252
0.00210715
0.0024658
0.00245875
-0.000100912
-0.000234734
-0.000948143
-0.000647394
-0.000171705
0.000241681
-0.000410113
0.000487049
-1.58311e-05
-0.000108226
0.00039421
0.000828578
0.00120517
0.000877609
0.0010553
0.00174516
0.00184949
0.0018949
0.0021938
0.00221231
-0.00010543
-0.000251784
-0.000913592
-0.000649259
-0.00018274
0.000256665
-0.000402351
0.000460984
1.80446e-05
-0.000149531
0.000401641
0.000820269
0.00115437
0.000854705
0.000966222
0.00162063
0.0017318
0.00169184
0.00191835
0.00195874
-0.000110131
-0.000268235
-0.000880331
-0.000650298
-0.000195065
0.000273078
-0.000393062
0.000431205
5.4186e-05
-0.000191557
0.000403725
0.000817536
0.00109466
0.000825169
0.00087828
0.00148224
0.00160588
0.00149928
0.00164611
0.00169518
-0.000115108
-0.000283759
-0.000848753
-0.000650429
-0.000208594
0.000290497
-0.000381216
0.000396992
9.21253e-05
-0.00023297
0.000398118
0.000820652
0.00102786
0.000784631
0.000792705
0.00133349
0.00146868
0.00131551
0.00138279
0.00142477
-0.000120521
-0.000298018
-0.000819213
-0.000649627
-0.000223112
0.000308317
-0.000365694
0.000357944
0.000130899
-0.000271873
0.000382571
0.000828832
0.000956482
0.000729865
0.000709639
0.00117897
0.00131878
0.0011373
0.00113161
0.00115421
-0.000126512
-0.000310631
-0.000792002
-0.000647997
-0.000238254
0.000325615
-0.000345464
0.000314162
0.000168875
-0.000306221
0.000355651
0.000839953
0.000883581
0.000659429
0.000627639
0.00102323
0.00115654
0.000961367
0.000892993
0.000889564
-0.000133229
-0.000321186
-0.000767347
-0.000645839
-0.00025349
0.000341441
-0.000319797
0.00026606
0.000203951
-0.00033408
0.000316833
0.000850829
0.000812431
0.000572613
0.000544154
0.000870379
0.000983212
0.000784549
0.000666266
0.000634219
-0.000140882
-0.000329363
-0.000745356
-0.000643578
-0.000268088
0.000354808
-0.000288326
0.000214797
0.000233644
-0.00035433
0.000266587
0.000857684
0.000745761
0.000470665
0.000456236
0.000724026
0.000800871
0.000602998
0.000450654
0.000390119
-0.000149652
-0.000334905
-0.000725931
-0.000641831
-0.000281202
0.000364812
-0.000251262
0.000162462
0.000255627
-0.000366899
0.000206261
0.000856695
0.000685346
0.000356336
0.000360474
0.000586942
0.000614032
0.00041202
0.000243899
0.000159453
-0.00015969
-0.000337583
-0.000708663
-0.000641575
-0.000292113
0.000371105
-0.000209611
0.00011179
0.000268425
-0.000372895
0.000137799
0.000844811
0.000631864
0.000233153
0.000253285
0.000459733
0.000429466
0.000208655
4.06804e-05
-5.60781e-05
-0.00017116
-0.000337299
-0.000692805
-0.000644049
-0.000300495
0.000373746
-0.00016506
6.55498e-05
0.000271292
-0.000374517
6.32217e-05
0.000820174
0.000585177
0.000105028
0.000131797
0.000339886
0.000254207
-5.11291e-06
-0.000166812
-0.000258017
-0.000184174
-0.000334181
-0.000677351
-0.000650469
-0.000306549
0.000373604
-0.000119892
2.55678e-05
0.000264876
-0.000374485
-1.62262e-05
0.000782274
0.000545048
-2.4293e-05
-6.19925e-06
0.000222708
9.43083e-05
-0.000222357
-0.000385409
-0.000452343
-0.00019874
-0.000328606
-0.00066109
-0.000661748
-0.00031078
0.000372242
-7.65893e-05
-7.28843e-06
0.000251517
-0.000374805
-0.000100244
0.00073091
0.000511473
-0.000150784
-0.000162295
0.000102402
-4.67268e-05
-0.000434002
-0.000617111
-0.000648021
-0.000214849
-0.000321123
-0.000642567
-0.000678309
-0.000314493
0.000371503
-3.68285e-05
-3.3314e-05
0.000233724
-0.000376151
-0.000189261
0.000665106
0.000484083
-0.000269457
-0.000335972
-2.82319e-05
-0.000169236
-0.00063102
-0.000858711
-0.000853466
-0.000232473
-0.000312481
-0.000620314
-0.000699929
-0.000321836
0.000373225
-1.09148e-06
-5.63202e-05
0.000213285
-0.000377637
-0.000283445
0.000582837
0.000461136
-0.000374277
-0.000523257
-0.000177157
-0.000277999
-0.000804368
-0.00110301
-0.00107328
-0.000251458
-0.000303549
-0.000593301
-0.000725758
-0.00033523
0.000378513
3.14422e-05
-7.96846e-05
0.000190797
-0.000376355
-0.000381343
0.000480929
0.000438724
-0.000459249
-0.000717198
-0.000350862
-0.000381715
-0.000947153
-0.00133949
-0.00130816
-0.000271551
-0.000295205
-0.000560903
-0.000754199
-0.000357816
0.000387263
6.38027e-05
-0.00010676
0.000165429
-0.000369455
-0.00048016
0.000357114
0.000410913
-0.000521052
-0.00090885
-0.000550982
-0.000492177
-0.00105869
-0.00155572
-0.00155564
-0.000292435
-0.000288395
-0.000522982
-0.000782721
-0.000392372
0.000398137
0.000100125
-0.000139084
0.000133391
-0.000355746
-0.000573947
0.000211707
0.000369093
-0.000560864
-0.00108709
-0.000772822
-0.000621304
-0.00114595
-0.00173903
-0.00180895
-0.00031362
-0.000284102
-0.000480034
-0.000807983
-0.000440543
0.000407172
0.000143924
-0.000175643
8.93489e-05
-0.000336149
-0.000654237
4.82548e-05
0.000303459
-0.000583962
-0.00124154
-0.00100711
-0.000777053
-0.00122101
-0.0018801
-0.00205437
-0.000334478
-0.000283281
-0.000433318
-0.000826295
-0.000502623
0.000408199
0.000196912
-0.000212969
2.90584e-05
-0.000314561
-0.000713845
-0.00012663
0.00020773
-0.000599385
-0.00136692
-0.00124282
-0.000961133
-0.00129944
-0.00197882
-0.00227234
-0.00035435
-0.000286643
-0.000384879
-0.000834564
-0.000576939
0.000394491
0.000258626
-0.000243329
-4.88498e-05
-0.000298609
-0.000749812
-0.000301482
8.15512e-05
-0.000618924
-0.00146317
-0.00146854
-0.00116862
-0.00139553
-0.00204767
-0.00244482
-0.000372484
-0.000294681
-0.000337203
-0.000830254
-0.000659717
0.000359754
0.000326149
-0.000258169
-0.000142344
-0.00029834
-0.00076393
-0.0004631
-7.07256e-05
-0.000653982
-0.00153469
-0.00167478
-0.00139014
-0.0015154
-0.00210508
-0.00256671
-0.000388198
-0.000307612
-0.000293326
-0.000811197
-0.000747695
0.000298654
0.000392934
-0.000251781
-0.000247252
-0.000321852
-0.000761372
-0.000601551
-0.000240398
-0.000711621
-0.00158901
-0.00185568
-0.00161628
-0.00165698
-0.0021668
-0.00265024
-0.000401023
-0.000325178
-0.000256341
-0.000776717
-0.000832571
0.000209111
0.000449436
-0.00022213
-0.000353986
-0.00037263
-0.000752645
-0.000713452
-0.000415629
-0.000792785
-0.00163469
-0.002008
-0.00183852
-0.00181583
-0.00223995
-0.0027135
-0.000410657
-0.000346616
-0.000228712
-0.000728411
-0.000907574
9.23774e-05
0.000485209
-0.00017126
-0.000450231
-0.000449058
-0.000749686
-0.000799696
-0.00058594
-0.000895173
-0.00167988
-0.00213097
-0.00204727
-0.0019878
-0.00232583
-0.00277088
-0.000417164
-0.000370791
-0.0002124
-0.000669684
-0.000967421
-4.82764e-05
0.000491531
-0.000104312
-0.000526904
-0.000547232
-0.000762372
-0.000863213
-0.000742538
-0.00101401
-0.00173206
-0.00222874
-0.00223272
-0.00216553
-0.00242457
-0.00282928
-0.000420875
-0.000396294
-0.000208766
-0.000605378
-0.00100793
-0.000204098
0.000461502
-3.1746e-05
-0.000576863
-0.000658581
-0.000796935
-0.000911921
-0.000879533
-0.00114154
-0.0017957
-0.00230941
-0.00238839
-0.00233716
-0.00253422
-0.00289116
-0.000422247
-0.000421418
-0.000218111
-0.000541673
-0.00102614
-0.000363984
0.000392047
3.20789e-05
-0.000598769
-0.000770782
-0.000854056
-0.000955293
-0.000995892
-0.00126953
-0.00187088
-0.00238141
-0.00251464
-0.00249034
-0.00264679
-0.00295741
-0.000422088
-0.000444672
-0.000239873
-0.000484362
-0.00102041
-0.000517869
0.000283763
7.47402e-05
-0.000595721
-0.00087263
-0.000931492
-0.00100063
-0.00109222
-0.00139198
-0.00195506
-0.00245054
-0.00261809
-0.00261643
-0.00274969
-0.00302478
-0.0004213
-0.000465204
-0.000272391
-0.000437864
-0.000988909
-0.000657183
0.000141019
8.70811e-05
-0.000575549
-0.000956825
-0.00102325
-0.00105511
-0.00117102
-0.00150253
-0.00204557
-0.00252046
-0.0027058
-0.00271614
-0.00283075
-0.0030832
-0.000420839
-0.000482522
-0.000313041
-0.000405996
-0.000948404
-0.000776335
-2.52697e-05
6.34077e-05
-0.000550308
-0.00102158
-0.00111995
-0.00112104
-0.00123971
-0.00159619
-0.00213656
-0.00259421
-0.00278335
-0.00279676
-0.00288565
-0.00312084
-0.000421646
-0.00049669
-0.000358178
-0.000391047
-0.000899902
-0.000871035
-0.000201843
2.79338e-06
-0.000531556
-0.00106831
-0.00121672
-0.00119545
-0.00130291
-0.00167375
-0.00222011
-0.00267224
-0.00285719
-0.00286411
-0.00292017
-0.00312919
-0.000424422
-0.000508106
-0.000404382
-0.000393075
-0.000851419
-0.000940286
-0.00037729
-9.23586e-05
-0.00052795
-0.0010996
-0.00131057
-0.00127893
-0.0013597
-0.00173576
-0.00229327
-0.00275059
-0.00293263
-0.00292547
-0.00294274
-0.0031103
-0.000429684
-0.000517476
-0.000449848
-0.00041055
-0.000809669
-0.000986005
-0.000542878
-0.000214384
-0.000544895
-0.0011213
-0.00139606
-0.00137324
-0.00141562
-0.00177703
-0.00235136
-0.0028254
-0.00301201
-0.00298894
-0.00296376
-0.00307632
-0.000437695
-0.000526048
-0.000493334
-0.000440697
-0.000778521
-0.00101567
-0.000693655
-0.00035372
-0.000583761
-0.0011406
-0.00147158
-0.00147395
-0.00147921
-0.00180022
-0.00238359
-0.00289249
-0.0030957
-0.00305963
-0.00299133
-0.00303837
-0.000448668
-0.0005346
-0.000534407
-0.000480616
-0.000760231
-0.00103476
-0.000827923
-0.000502427
-0.000642983
-0.00116038
-0.00153932
-0.001577
-0.00155361
-0.001818
-0.00238416
-0.00293794
-0.0031813
-0.00313974
-0.00302878
-0.00300584
-0.000462898
-0.000544856
-0.00057317
-0.000527403
-0.000755191
-0.00104788
-0.000945249
-0.000654334
-0.000721721
-0.0011826
-0.00159735
-0.00168348
-0.00163857
-0.00183869
-0.00236291
-0.00294623
-0.00325648
-0.00322993
-0.00307799
-0.00298309
-0.000480446
-0.000557358
-0.000609951
-0.00057893
-0.000762844
-0.0010587
-0.00104723
-0.00080492
-0.000816981
-0.00121233
-0.00164277
-0.00178796
-0.00173928
-0.0018675
-0.00233022
-0.00291524
-0.0032979
-0.00332202
-0.00314135
-0.00297364
-0.000501308
-0.000572773
-0.000645304
-0.000633632
-0.000782369
-0.00106965
-0.0011352
-0.000951367
-0.000924643
-0.00125314
-0.0016789
-0.00188115
-0.00185424
-0.00191379
-0.00229326
-0.0028542
-0.00328915
-0.00339212
-0.00321527
-0.00298277
-0.000525607
-0.000591537
-0.00067979
-0.000690287
-0.000812724
-0.00108298
-0.0012099
-0.00109133
-0.00104217
-0.00130485
-0.0017118
-0.00195811
-0.0019708
-0.00198415
-0.0022632
-0.00277143
-0.00323036
-0.00341407
-0.00328395
-0.00301156
-0.000553388
-0.000613928
-0.000713923
-0.000747973
-0.000852623
-0.00110079
-0.00127292
-0.00122191
-0.00116802
-0.00136784
-0.00174391
-0.00202104
-0.00207852
-0.00207182
-0.00225236
-0.00267741
-0.00313095
-0.00337531
-0.0033189
-0.00304861
-0.000584585
-0.000640173
-0.000748041
-0.000805855
-0.000900723
-0.00112471
-0.00132664
-0.00134063
-0.00129908
-0.0014443
-0.00177761
-0.00207183
-0.00217225
-0.00216553
-0.0022649
-0.00258576
-0.00300089
-0.00327807
-0.00329557
-0.00306941
-0.000618979
-0.000670417
-0.00078246
-0.000863094
-0.000955645
-0.00115578
-0.00137382
-0.00144603
-0.00143052
-0.00153506
-0.00181746
-0.00211237
-0.00225012
-0.002257
-0.00229777
-0.00250784
-0.00285219
-0.00313251
-0.00320344
-0.00304093
-0.000656158
-0.00070468
-0.000817704
-0.000918636
-0.00101565
-0.00119474
-0.00141715
-0.00153777
-0.00155781
-0.00163769
-0.00186823
-0.00214772
-0.00231181
-0.00233904
-0.0023441
-0.00245123
-0.0026967
-0.00294728
-0.00304639
-0.0029424
-0.000695539
-0.000742714
-0.000854421
-0.000971661
-0.00107856
-0.00124178
-0.00145957
-0.00161641
-0.00167665
-0.00174769
-0.00193158
-0.00218343
-0.00235975
-0.00240564
-0.00239433
-0.00241816
-0.00254715
-0.00273196
-0.00283155
-0.00277497
-0.000736463
-0.000783996
-0.000893147
-0.00102186
-0.00114199
-0.00129569
-0.0015039
-0.001684
-0.00178314
-0.00185966
-0.00200579
-0.00222238
-0.00239801
-0.00245374
-0.0024351
-0.00240135
-0.00241644
-0.00250329
-0.00257172
-0.00254553
-0.000778204
-0.000827595
-0.000934189
-0.00106942
-0.00120351
-0.00135417
-0.00155186
-0.00174373
-0.00187499
-0.00196714
-0.00208729
-0.00226381
-0.00242771
-0.0024838
-0.00245316
-0.00238373
-0.00230892
-0.00228695
-0.00229884
-0.00228858
-0.000820125
-0.000872126
-0.000977149
-0.00111508
-0.00126129
-0.00141427
-0.00160313
-0.00179851
-0.0019524
-0.00206392
-0.00217091
-0.00230627
-0.0024453
-0.00249564
-0.00244481
-0.00234612
-0.00221683
-0.00211202
-0.0020663
-0.00206059
-0.000861481
-0.000916281
-0.001021
-0.00115932
-0.00131451
-0.00147292
-0.00165613
-0.00184974
-0.00201699
-0.00214523
-0.00225051
-0.00235129
-0.0024513
-0.00248546
-0.00241392
-0.00228797
-0.00213248
-0.00198387
-0.00189489
-0.00188244
-0.000901286
-0.000958747
-0.00106425
-0.00120204
-0.00136297
-0.0015277
-0.00170833
-0.00189785
-0.00207022
-0.00220802
-0.00231703
-0.00239876
-0.00245964
-0.00247038
-0.00237633
-0.0022187
-0.00204581
-0.00187986
-0.00176763
-0.00174719
-0.000938524
-0.00099813
-0.00110507
-0.00124241
-0.00140647
-0.00157677
-0.00175722
-0.00194288
-0.00211473
-0.00225298
-0.00236017
-0.00243246
-0.00247092
-0.00246965
-0.00237624
-0.00220008
-0.0020002
-0.00180486
-0.00165588
-0.00160367
-0.000971819
-0.00103299
-0.0011415
-0.00127888
-0.00144436
-0.00161861
-0.00180006
-0.00198261
-0.00215362
-0.00229167
-0.00238978
-0.00243942
-0.00243675
-0.00240024
-0.00231464
-0.00216889
-0.00200693
-0.00185812
-0.00174621
-0.00170796
-0.000999933
-0.00106228
-0.00117183
-0.00130936
-0.00147478
-0.0016508
-0.00183298
-0.00201204
-0.00217991
-0.00231826
-0.002418
-0.00247586
-0.00247609
-0.00241954
-0.00231036
-0.00213913
-0.00193415
-0.00174534
-0.00161023
-0.00156779
-0.0010229
-0.00108834
-0.00120061
-0.00134042
-0.00150726
-0.00168484
-0.00186869
-0.00204749
-0.00221311
-0.00235029
-0.00244643
-0.0024961
-0.00248744
-0.00241652
-0.00229521
-0.00212812
-0.00193462
-0.00175739
-0.00163457
-0.00160391
0.016598
0.00978759
0.000637779
-0.00573347
-0.00749091
-0.00681592
-0.00595931
-0.0054048
-0.005067
-0.00492943
-0.00494248
-0.00496847
-0.00494963
-0.00498632
-0.0051077
-0.00517027
-0.00512976
-0.00510334
-0.00513613
-0.00519423
-0.00525564
-0.00528621
-0.00528597
-0.00530616
-0.00535327
-0.0053896
-0.00541861
-0.00546026
-0.00551179
-0.00556675
-0.00561732
-0.00566549
-0.00571717
-0.00576795
-0.00582211
-0.00587985
-0.00594145
-0.00601412
-0.00609436
-0.00618694
-0.00629199
-0.00639612
-0.00650264
-0.00661432
-0.00670702
-0.00678186
-0.00686225
-0.00693972
-0.00700385
-0.00707041
-0.00713896
-0.00722054
-0.00734471
-0.00748173
-0.00758997
-0.00766894
-0.0077437
-0.00783728
-0.00794059
-0.00800983
-0.00806184
-0.00813731
-0.00821168
-0.00826068
-0.00830824
-0.00837107
-0.00842548
-0.00847171
-0.00851921
-0.00856942
-0.00861683
-0.00866194
-0.00870944
-0.00875369
-0.00880098
-0.00884638
-0.00889077
-0.00893464
-0.00897891
-0.00902918
-0.00907596
-0.00912778
-0.00917435
-0.00922318
-0.00926926
-0.00931805
-0.00936915
-0.00942149
-0.00947697
-0.0095304
-0.0095878
-0.00964033
-0.00969813
-0.00975017
-0.00980754
-0.00986038
-0.0099106
-0.00996792
-0.00999493
-0.0100298
0.0155957
0.00961809
0.000724304
-0.00559041
-0.00740378
-0.00677425
-0.00593431
-0.00538776
-0.00505423
-0.00491912
-0.00493399
-0.00496131
-0.00494326
-0.00498065
-0.00510298
-0.00516634
-0.00512617
-0.00509998
-0.00513308
-0.00519148
-0.0052532
-0.00528405
-0.00528395
-0.00530425
-0.00535153
-0.00538798
-0.00541706
-0.00545878
-0.00551037
-0.0055654
-0.00561604
-0.00566425
-0.00571599
-0.00576682
-0.00582102
-0.00587881
-0.00594046
-0.00601317
-0.00609345
-0.00618607
-0.00629116
-0.00639533
-0.00650188
-0.00661362
-0.00670637
-0.00678125
-0.00686167
-0.00693919
-0.00700335
-0.00706995
-0.00713853
-0.00722012
-0.00734431
-0.00748138
-0.00758966
-0.00766866
-0.00774343
-0.00783702
-0.00794037
-0.00800964
-0.00806165
-0.00813714
-0.00821153
-0.00826056
-0.00830812
-0.00837096
-0.00842538
-0.00847163
-0.00851913
-0.00856935
-0.00861677
-0.00866188
-0.00870939
-0.00875365
-0.00880095
-0.00884635
-0.00889075
-0.00893462
-0.00897889
-0.00902916
-0.00907594
-0.00912776
-0.00917434
-0.00922317
-0.00926925
-0.00931804
-0.00936914
-0.00942149
-0.00947697
-0.0095304
-0.00958779
-0.00964033
-0.00969813
-0.00975017
-0.00980754
-0.00986038
-0.00991059
-0.00996792
-0.00999492
-0.0100298
0.0147118
0.00947385
0.000915109
-0.0053176
-0.0072516
-0.00671779
-0.00590678
-0.00536739
-0.00503837
-0.00490675
-0.00492405
-0.00495312
-0.00493627
-0.00497452
-0.00509777
-0.00516196
-0.00512238
-0.00509669
-0.00513017
-0.0051888
-0.0052508
-0.00528194
-0.00528202
-0.00530248
-0.00534994
-0.00538652
-0.00541567
-0.00545749
-0.00550915
-0.00556423
-0.00561492
-0.00566318
-0.00571497
-0.00576583
-0.00582007
-0.00587791
-0.00593958
-0.00601233
-0.00609265
-0.0061853
-0.00629045
-0.00639465
-0.00650122
-0.00661301
-0.00670581
-0.00678071
-0.00686116
-0.00693872
-0.00700291
-0.00706952
-0.00713813
-0.00721973
-0.00734396
-0.00748109
-0.00758939
-0.0076684
-0.00774319
-0.0078368
-0.00794018
-0.00800947
-0.00806148
-0.00813698
-0.00821141
-0.00826044
-0.00830801
-0.00837087
-0.0084253
-0.00847155
-0.00851906
-0.00856929
-0.00861672
-0.00866184
-0.00870935
-0.00875361
-0.00880091
-0.00884632
-0.00889072
-0.00893459
-0.00897887
-0.00902914
-0.00907593
-0.00912775
-0.00917433
-0.00922316
-0.00926925
-0.00931804
-0.00936914
-0.00942148
-0.00947696
-0.0095304
-0.00958779
-0.00964033
-0.00969813
-0.00975017
-0.00980754
-0.00986038
-0.00991059
-0.00996792
-0.00999492
-0.0100297
0.0138996
0.00932379
0.00115017
-0.00497552
-0.00704353
-0.0066379
-0.00586627
-0.00533588
-0.00501411
-0.00488888
-0.00491011
-0.00494189
-0.00492721
-0.00496664
-0.00509036
-0.00515531
-0.005117
-0.0050925
-0.00512655
-0.00518529
-0.00524751
-0.00527909
-0.00527959
-0.00530036
-0.00534805
-0.00538481
-0.00541413
-0.00545612
-0.00550788
-0.00556303
-0.00561378
-0.00566209
-0.00571393
-0.00576482
-0.0058191
-0.00587697
-0.00593866
-0.00601144
-0.0060918
-0.0061845
-0.00628971
-0.00639395
-0.00650053
-0.00661236
-0.0067052
-0.00678013
-0.00686062
-0.00693822
-0.00700241
-0.00706904
-0.00713767
-0.00721929
-0.00734357
-0.00748077
-0.00758909
-0.00766812
-0.00774291
-0.00783654
-0.00793997
-0.00800929
-0.00806129
-0.00813681
-0.00821127
-0.00826031
-0.00830788
-0.00837076
-0.00842521
-0.00847146
-0.00851898
-0.00856922
-0.00861666
-0.00866178
-0.0087093
-0.00875357
-0.00880087
-0.00884629
-0.00889069
-0.00893457
-0.00897885
-0.00902912
-0.00907591
-0.00912774
-0.00917432
-0.00922315
-0.00926924
-0.00931803
-0.00936913
-0.00942148
-0.00947696
-0.00953039
-0.00958779
-0.00964033
-0.00969813
-0.00975017
-0.00980754
-0.00986038
-0.00991059
-0.00996793
-0.00999493
-0.0100297
0.0130999
0.00913856
0.00138796
-0.00461548
-0.00681476
-0.00654742
-0.00581918
-0.0052963
-0.00498199
-0.00486485
-0.00489109
-0.00492647
-0.00491523
-0.00495633
-0.0050799
-0.00514534
-0.00510919
-0.0050869
-0.00512183
-0.00518045
-0.00524267
-0.00527488
-0.00527622
-0.00529755
-0.00534549
-0.00538248
-0.00541216
-0.00545448
-0.00550641
-0.00556166
-0.0056125
-0.0056609
-0.00571281
-0.00576373
-0.00581803
-0.00587593
-0.00593763
-0.00601042
-0.00609081
-0.00618358
-0.00628889
-0.00639318
-0.00649975
-0.00661158
-0.00670447
-0.00677945
-0.00686
-0.00693763
-0.00700179
-0.00706841
-0.00713709
-0.00721875
-0.0073431
-0.00748035
-0.0075887
-0.00766775
-0.00774256
-0.00783622
-0.00793969
-0.00800903
-0.00806104
-0.00813659
-0.00821109
-0.00826013
-0.00830771
-0.00837062
-0.00842509
-0.00847135
-0.00851888
-0.00856913
-0.00861658
-0.00866171
-0.00870924
-0.00875351
-0.00880082
-0.00884625
-0.00889065
-0.00893453
-0.00897881
-0.00902909
-0.00907589
-0.00912772
-0.0091743
-0.00922313
-0.00926923
-0.00931802
-0.00936912
-0.00942147
-0.00947695
-0.00953039
-0.00958779
-0.00964032
-0.00969813
-0.00975016
-0.00980754
-0.00986038
-0.00991059
-0.00996794
-0.00999496
-0.0100297
0.0123097
0.00891648
0.0016168
-0.00425214
-0.00657633
-0.00645265
-0.00577142
-0.00525408
-0.0049456
-0.00483663
-0.00486824
-0.00490771
-0.00490083
-0.00494392
-0.00506666
-0.00513227
-0.00509897
-0.00507979
-0.0051159
-0.00517414
-0.00523605
-0.00526904
-0.00527172
-0.00529389
-0.00534209
-0.00537937
-0.00540958
-0.00545237
-0.00550457
-0.00555997
-0.005611
-0.00565959
-0.00571161
-0.00576256
-0.00581689
-0.00587482
-0.00593649
-0.00600924
-0.00608963
-0.00618248
-0.00628793
-0.00639229
-0.00649883
-0.00661062
-0.00670355
-0.00677865
-0.0068593
-0.00693691
-0.00700098
-0.00706757
-0.00713631
-0.00721807
-0.0073425
-0.00747977
-0.00758812
-0.00766723
-0.0077421
-0.00783577
-0.00793927
-0.00800865
-0.00806069
-0.00813629
-0.00821081
-0.00825987
-0.00830747
-0.00837042
-0.0084249
-0.00847118
-0.00851873
-0.00856899
-0.00861646
-0.0086616
-0.00870914
-0.00875343
-0.00880075
-0.00884618
-0.00889059
-0.00893448
-0.00897876
-0.00902905
-0.00907585
-0.00912769
-0.00917428
-0.00922311
-0.00926921
-0.009318
-0.00936911
-0.00942145
-0.00947694
-0.00953038
-0.00958778
-0.00964032
-0.00969812
-0.00975016
-0.00980754
-0.00986039
-0.00991059
-0.00996796
-0.00999501
-0.0100297
0.0115361
0.00865931
0.00183161
-0.0038883
-0.00632834
-0.00635299
-0.00572378
-0.00521105
-0.00490651
-0.00480541
-0.00484278
-0.00488681
-0.00488481
-0.0049301
-0.00505164
-0.00511717
-0.00508708
-0.00507153
-0.00510899
-0.0051666
-0.00522787
-0.0052617
-0.00526614
-0.00528941
-0.00533789
-0.00537551
-0.00540639
-0.00544974
-0.00550219
-0.00555777
-0.0056091
-0.00565804
-0.00571028
-0.00576132
-0.0058157
-0.00587366
-0.0059353
-0.00600795
-0.00608827
-0.00618117
-0.00628676
-0.00639121
-0.00649767
-0.00660936
-0.00670238
-0.00677771
-0.00685853
-0.00693609
-0.00699996
-0.00706644
-0.00713528
-0.00721721
-0.00734171
-0.00747892
-0.00758728
-0.0076665
-0.00774147
-0.00783514
-0.00793865
-0.00800809
-0.0080602
-0.00813585
-0.00821039
-0.00825948
-0.00830712
-0.00837011
-0.00842463
-0.00847093
-0.00851851
-0.00856879
-0.00861628
-0.00866144
-0.00870901
-0.00875331
-0.00880064
-0.00884609
-0.00889051
-0.00893441
-0.0089787
-0.00902899
-0.0090758
-0.00912764
-0.00917424
-0.00922307
-0.00926918
-0.00931797
-0.00936908
-0.00942143
-0.00947693
-0.00953037
-0.00958777
-0.00964031
-0.00969812
-0.00975016
-0.00980753
-0.0098604
-0.00991058
-0.00996799
-0.0099951
-0.0100296
0.0107857
0.00836762
0.00202813
-0.00352373
-0.00606792
-0.00624576
-0.00567563
-0.00516777
-0.00486526
-0.00477161
-0.00481524
-0.0048643
-0.00486756
-0.00491528
-0.00503556
-0.0051009
-0.00507418
-0.00506249
-0.00510136
-0.00515817
-0.00521859
-0.00525329
-0.00525973
-0.00528426
-0.00533305
-0.0053711
-0.00540276
-0.00544669
-0.00549931
-0.00555497
-0.00560665
-0.00565607
-0.00570868
-0.00575991
-0.00581443
-0.00587249
-0.0059341
-0.00600661
-0.0060868
-0.00617969
-0.00628541
-0.00638991
-0.00649619
-0.00660769
-0.00670082
-0.00677655
-0.00685767
-0.00693521
-0.00699879
-0.00706504
-0.00713397
-0.00721614
-0.00734067
-0.00747774
-0.00758607
-0.00766548
-0.0077406
-0.00783425
-0.00793773
-0.00800728
-0.00805952
-0.00813521
-0.00820977
-0.00825891
-0.00830663
-0.00836967
-0.00842422
-0.00847056
-0.00851818
-0.0085685
-0.00861602
-0.00866121
-0.0087088
-0.00875312
-0.00880047
-0.00884594
-0.00889038
-0.0089343
-0.00897859
-0.00902891
-0.00907572
-0.00912758
-0.00917418
-0.00922302
-0.00926913
-0.00931793
-0.00936905
-0.0094214
-0.0094769
-0.00953034
-0.00958775
-0.0096403
-0.00969811
-0.00975015
-0.00980753
-0.00986041
-0.00991058
-0.00996803
-0.00999521
-0.0100296
0.0100628
0.00804373
0.0022034
-0.00315843
-0.00579331
-0.00612921
-0.00562666
-0.00512491
-0.00482242
-0.00473544
-0.00478571
-0.00484029
-0.0048492
-0.00489966
-0.00501876
-0.00508386
-0.00506055
-0.00505283
-0.00509317
-0.00514914
-0.0052086
-0.00524418
-0.00525274
-0.00527863