/*--------------------------------*- C++ -*----------------------------------*\
| =========                 |                                                 |
| \\      /  F ield         | OpenFOAM: The Open Source CFD Toolbox           |
|  \\    /   O peration     | Version:  2106                                  |
|   \\  /    A nd           | Website:  www.openfoam.com                      |
|    \\/     M anipulation  |                                                 |
\*---------------------------------------------------------------------------*/
FoamFile
{
    version     2.0;
    format      ascii;
    arch        "LSB;label=32;scalar=64";
    class       surfaceScalarField;
    location    "0.615";
    object      phi;
}
// * * * * * * * * * * * * * * * * * * * * * * * * * * * * * * * * * * * * * //

dimensions      [0 3 -1 0 0 0 0];

oriented        oriented;

internalField   nonuniform List<scalar> 
19000
(
1.16738e-06
-4.86378e-08
1.16491e-06
-4.84961e-07
1.21731e-06
6.06254e-07
1.15167e-06
4.56489e-07
1.13414e-06
-3.31811e-07
1.16867e-06
1.88551e-07
1.16827e-06
-2.60387e-07
1.16484e-06
2.40395e-07
1.17174e-06
-1.86141e-07
1.16981e-06
4.4867e-07
1.17271e-06
-3.43154e-09
1.1584e-06
1.32045e-07
1.16007e-06
-1.40833e-07
1.1536e-06
-6.44496e-08
1.16097e-06
-1.23269e-07
1.16144e-06
-6.86028e-09
1.17166e-06
-1.01122e-07
1.16618e-06
1.07499e-08
1.16817e-06
-7.37464e-09
-6.31914e-08
1.13277e-06
1.22278e-06
-4.71526e-08
1.21963e-06
-4.81816e-07
1.27138e-06
5.54506e-07
1.21268e-06
5.15193e-07
1.1932e-06
-3.1233e-07
1.22862e-06
1.53123e-07
1.22829e-06
-2.60053e-07
1.22712e-06
2.41564e-07
1.23143e-06
-1.90457e-07
1.23553e-06
4.44571e-07
1.2322e-06
-1.01108e-10
1.22553e-06
1.38718e-07
1.21859e-06
-1.33893e-07
1.22011e-06
-6.59684e-08
1.21532e-06
-1.18483e-07
1.22931e-06
-2.08432e-08
1.22164e-06
-9.34527e-08
1.23714e-06
-4.75693e-09
1.21351e-06
1.62569e-08
-6.53719e-08
1.21569e-06
1.28022e-06
-4.45871e-08
1.27799e-06
-4.79591e-07
1.32436e-06
5.08141e-07
1.2809e-06
5.58648e-07
1.25554e-06
-2.86968e-07
1.29145e-06
1.17212e-07
1.28954e-06
-2.58137e-07
1.29351e-06
2.37595e-07
1.29041e-06
-1.87356e-07
1.3015e-06
4.33476e-07
1.29039e-06
1.10119e-08
1.29083e-06
1.38271e-07
1.27625e-06
-1.19311e-07
1.28153e-06
-7.12494e-08
1.27213e-06
-1.09077e-07
1.28562e-06
-3.43387e-08
1.27764e-06
-8.54675e-08
1.28825e-06
-1.53691e-08
1.27553e-06
2.89782e-08
-5.31068e-08
1.26326e-06
1.34004e-06
-4.05253e-08
1.33986e-06
-4.7941e-07
1.37814e-06
4.69861e-07
1.35195e-06
5.84841e-07
1.32107e-06
-2.56092e-07
1.35381e-06
8.44726e-08
1.35141e-06
-2.55738e-07
1.35777e-06
2.31232e-07
1.34911e-06
-1.78688e-07
1.36095e-06
4.21633e-07
1.34797e-06
2.39872e-08
1.34946e-06
1.3679e-07
1.33487e-06
-1.04731e-07
1.33777e-06
-7.41456e-08
1.33094e-06
-1.02248e-07
1.33922e-06
-4.26198e-08
1.33495e-06
-8.1193e-08
1.34135e-06
-2.17735e-08
1.33429e-06
3.60398e-08
-3.8128e-08
1.31931e-06
1.40303e-06
-3.52055e-08
1.40488e-06
-4.81251e-07
1.43388e-06
4.4086e-07
1.422e-06
5.96713e-07
1.38969e-06
-2.2378e-07
1.41594e-06
5.82289e-08
1.41472e-06
-2.54519e-07
1.42055e-06
2.254e-07
1.40949e-06
-1.67632e-07
1.41824e-06
4.1288e-07
1.40739e-06
3.48434e-08
1.40828e-06
1.35897e-07
1.39663e-06
-9.30749e-08
1.3975e-06
-7.50218e-08
1.39237e-06
-9.7118e-08
1.39815e-06
-4.83985e-08
1.39443e-06
-7.74677e-08
1.3996e-06
-2.69482e-08
1.39419e-06
4.14512e-08
-2.34513e-08
1.37951e-06
1.46999e-06
-2.95186e-08
1.47282e-06
-4.84086e-07
1.4929e-06
4.20782e-07
1.49012e-06
5.99495e-07
1.46154e-06
-1.95195e-07
1.48025e-06
3.95178e-08
1.48059e-06
-2.54864e-07
1.48508e-06
2.20908e-07
1.47363e-06
-1.56177e-07
1.47928e-06
4.07233e-07
1.47089e-06
4.32293e-08
1.47217e-06
1.34615e-07
1.46304e-06
-8.39441e-08
1.46373e-06
-7.57086e-08
1.45874e-06
-9.21266e-08
1.46351e-06
-5.31696e-08
1.45911e-06
-7.30701e-08
1.46275e-06
-3.05916e-08
1.4586e-06
4.56047e-08
-8.68152e-09
1.44383e-06
1.5412e-06
-2.45046e-08
1.54375e-06
-4.86636e-07
1.55636e-06
4.08172e-07
1.55805e-06
5.97809e-07
1.5364e-06
-1.73547e-07
1.5489e-06
2.70195e-08
1.54978e-06
-2.55748e-07
1.55358e-06
2.17114e-07
1.54245e-06
-1.45055e-07
1.54666e-06
4.03027e-07
1.5396e-06
5.02916e-08
1.54202e-06
1.32191e-07
1.53443e-06
-7.63492e-08
1.5358e-06
-7.70768e-08
1.53064e-06
-8.69666e-08
1.53462e-06
-5.71558e-08
1.52956e-06
-6.80096e-08
1.53099e-06
-3.20195e-08
1.52785e-06
4.87468e-08
6.3738e-09
1.51279e-06
1.6164e-06
-2.07758e-08
1.61781e-06
-4.88048e-07
1.62488e-06
4.01108e-07
1.62834e-06
5.9435e-07
1.6139e-06
-1.59116e-07
1.62252e-06
1.84066e-08
1.62266e-06
-2.55887e-07
1.62648e-06
2.13293e-07
1.6159e-06
-1.34477e-07
1.62026e-06
3.98665e-07
1.61355e-06
5.70068e-08
1.61715e-06
1.28587e-07
1.61029e-06
-6.94926e-08
1.61241e-06
-7.91961e-08
1.60723e-06
-8.17852e-08
1.6104e-06
-6.03255e-08
1.60497e-06
-6.25828e-08
1.60395e-06
-3.09999e-08
1.60152e-06
5.11758e-08
2.1627e-08
1.58627e-06
1.69511e-06
-1.83121e-08
1.69512e-06
-4.88058e-07
1.69861e-06
3.97615e-07
1.7029e-06
5.90062e-07
1.69397e-06
-1.50183e-07
1.70062e-06
1.17519e-08
1.69932e-06
-2.54586e-07
1.70348e-06
2.0914e-07
1.69348e-06
-1.2448e-07
1.69901e-06
3.93138e-07
1.69223e-06
6.37868e-08
1.69679e-06
1.2402e-07
1.69011e-06
-6.28119e-08
1.69268e-06
-8.17641e-08
1.68759e-06
-7.66959e-08
1.68986e-06
-6.25927e-08
1.68445e-06
-5.71726e-08
1.68115e-06
-2.76999e-08
1.67921e-06
5.31159e-08
3.67538e-08
1.66408e-06
1.7771e-06
-1.66914e-08
1.77577e-06
-4.86727e-07
1.77747e-06
3.95915e-07
1.78266e-06
5.84872e-07
1.77692e-06
-1.44438e-07
1.78257e-06
6.09966e-09
1.77975e-06
-2.51763e-07
1.78428e-06
2.04602e-07
1.7748e-06
-1.14998e-07
1.78197e-06
3.85965e-07
1.77511e-06
7.06512e-08
1.78045e-06
1.18681e-07
1.77361e-06
-5.597e-08
1.7762e-06
-8.43571e-08
1.77123e-06
-7.17217e-08
1.77245e-06
-6.38138e-08
1.76741e-06
-5.2131e-08
1.76223e-06
-2.25214e-08
1.76062e-06
5.47213e-08
5.12328e-08
1.74614e-06
1.86251e-06
-1.54522e-08
1.85991e-06
-4.84133e-07
1.86122e-06
3.94611e-07
1.86776e-06
5.78334e-07
1.86321e-06
-1.39893e-07
1.86805e-06
1.26444e-09
1.86391e-06
-2.47628e-07
1.86883e-06
1.9968e-07
1.85974e-06
-1.059e-07
1.86867e-06
3.77027e-07
1.86187e-06
7.74603e-08
1.86786e-06
1.12689e-07
1.86072e-06
-4.88334e-08
1.86294e-06
-8.65732e-08
1.85808e-06
-6.68674e-08
1.85809e-06
-6.3823e-08
1.85364e-06
-4.76831e-08
1.84711e-06
-1.59847e-08
1.84567e-06
5.61579e-08
6.44628e-08
1.83244e-06
1.95169e-06
-1.43009e-08
1.94782e-06
-4.80266e-07
1.94962e-06
3.92814e-07
1.95793e-06
5.7002e-07
1.95327e-06
-1.35226e-07
1.95715e-06
-2.61977e-09
1.95195e-06
-2.42432e-07
1.95725e-06
1.94382e-07
1.94839e-06
-9.70361e-08
1.959e-06
3.6642e-07
1.9524e-06
8.40579e-08
1.95895e-06
1.0614e-07
1.95155e-06
-4.14324e-08
1.95307e-06
-8.80983e-08
1.94839e-06
-6.21833e-08
1.94705e-06
-6.24907e-08
1.94327e-06
-4.3901e-08
1.93592e-06
-8.63177e-09
1.93443e-06
5.76473e-08
7.59181e-08
1.92298e-06
2.04501e-06
-1.31188e-08
2.03985e-06
-4.75109e-07
2.04254e-06
3.90123e-07
2.05284e-06
5.59716e-07
2.0474e-06
-1.2978e-07
2.0502e-06
-5.42186e-09
2.04415e-06
-2.36381e-07
2.04979e-06
1.88742e-07
2.04102e-06
-8.82713e-08
2.05309e-06
3.54356e-07
2.04682e-06
9.03259e-08
2.05381e-06
9.91499e-08
2.04629e-06
-3.39091e-08
2.04691e-06
-8.87171e-08
2.04249e-06
-5.77707e-08
2.03979e-06
-5.97872e-08
2.03658e-06
-4.06905e-08
2.02892e-06
-9.74225e-10
2.02715e-06
5.94227e-08
8.52925e-08
2.01777e-06
2.14276e-06
-1.18827e-08
2.13638e-06
-4.68725e-07
2.14002e-06
3.86485e-07
2.15226e-06
5.4747e-07
2.14588e-06
-1.23394e-07
2.14759e-06
-7.12873e-09
2.14084e-06
-2.29635e-07
2.14676e-06
1.82821e-07
2.13801e-06
-7.9518e-08
2.15126e-06
3.41099e-07
2.14539e-06
9.61949e-08
2.15266e-06
9.18814e-08
2.14521e-06
-2.64601e-08
2.1448e-06
-8.83028e-08
2.14076e-06
-5.37319e-08
2.1368e-06
-5.58257e-08
2.13393e-06
-3.78195e-08
2.1264e-06
6.55817e-09
2.12415e-06
6.1664e-08
9.25474e-08
2.1169e-06
2.24521e-06
-1.06014e-08
2.23775e-06
-4.61264e-07
2.24221e-06
3.82021e-07
2.25614e-06
5.33538e-07
2.24896e-06
-1.16212e-07
2.24966e-06
-7.83066e-09
2.24236e-06
-2.22329e-07
2.24848e-06
1.767e-07
2.2397e-06
-7.07435e-08
2.25388e-06
3.26923e-07
2.24845e-06
1.01628e-07
2.25579e-06
8.45345e-08
2.24862e-06
-1.92891e-08
2.24712e-06
-8.68047e-08
2.24351e-06
-5.01208e-08
2.23852e-06
-5.08346e-08
2.23567e-06
-3.49727e-08
2.22861e-06
1.36211e-08
2.22581e-06
6.44622e-08
9.78762e-08
2.22048e-06
2.35257e-06
-9.29187e-09
2.34422e-06
-4.52918e-07
2.34934e-06
3.76901e-07
2.3646e-06
5.18279e-07
2.35689e-06
-1.085e-07
2.35672e-06
-7.66583e-09
2.349e-06
-2.14605e-07
2.35523e-06
1.70468e-07
2.34644e-06
-6.19567e-08
2.36127e-06
3.12098e-07
2.35629e-06
1.06604e-07
2.36351e-06
7.73205e-08
2.35679e-06
-1.2571e-08
2.35423e-06
-8.42437e-08
2.35103e-06
-4.6921e-08
2.34529e-06
-4.50953e-08
2.34214e-06
-3.18274e-08
2.3358e-06
1.99612e-08
2.33246e-06
6.78084e-08
1.01627e-07
2.32871e-06
2.46508e-06
-7.97549e-09
2.45603e-06
-4.43867e-07
2.46165e-06
3.71279e-07
2.47786e-06
5.02071e-07
2.4699e-06
-1.00538e-07
2.469e-06
-6.76797e-09
2.46102e-06
-2.06622e-07
2.46727e-06
1.64217e-07
2.4585e-06
-5.31892e-08
2.47372e-06
2.96879e-07
2.46922e-06
1.11102e-07
2.47611e-06
7.04287e-08
2.46997e-06
-6.42769e-09
2.46644e-06
-8.07113e-08
2.46356e-06
-4.40405e-08
2.45736e-06
-3.88985e-08
2.45369e-06
-2.81547e-08
2.44816e-06
2.54844e-08
2.44439e-06
7.15848e-08
1.04222e-07
2.44179e-06
2.58299e-06
-6.67546e-09
2.57338e-06
-4.34251e-07
2.5794e-06
3.65258e-07
2.59622e-06
4.85255e-07
2.58824e-06
-9.25663e-08
2.58671e-06
-5.23506e-09
2.57864e-06
-1.98551e-07
2.58482e-06
1.58037e-07
2.57611e-06
-4.44818e-08
2.5915e-06
2.81493e-07
2.58749e-06
1.15108e-07
2.59392e-06
6.39982e-08
2.58841e-06
-9.09952e-10
2.58405e-06
-7.63605e-08
2.58135e-06
-4.134e-08
2.57494e-06
-3.24815e-08
2.57067e-06
-2.38859e-08
2.56588e-06
3.02723e-08
2.56189e-06
7.55772e-08
1.06085e-07
2.56003e-06
2.70657e-06
-5.41315e-09
2.69648e-06
-4.24168e-07
2.70286e-06
3.58886e-07
2.71999e-06
4.68125e-07
2.7122e-06
-8.4776e-08
2.71007e-06
-3.11362e-09
2.70208e-06
-1.90561e-07
2.70812e-06
1.52002e-07
2.69951e-06
-3.5878e-08
2.71488e-06
2.66123e-07
2.71137e-06
1.18623e-07
2.71726e-06
5.81055e-08
2.71235e-06
4.00119e-09
2.70736e-06
-7.13685e-08
2.7047e-06
-3.8677e-08
2.69822e-06
-2.60032e-08
2.6934e-06
-1.90662e-08
2.68918e-06
3.44889e-08
2.68522e-06
7.95375e-08
1.07578e-07
2.68373e-06
2.83606e-06
-4.20675e-09
2.82557e-06
-4.13676e-07
2.8323e-06
3.5216e-07
2.8495e-06
4.5092e-07
2.84205e-06
-7.7321e-08
2.83934e-06
-4.0599e-10
2.83157e-06
-1.82793e-07
2.8374e-06
1.46174e-07
2.82894e-06
-2.74152e-08
2.84417e-06
2.50892e-07
2.84111e-06
1.21677e-07
2.84646e-06
5.27587e-08
2.84208e-06
8.38377e-09
2.8366e-06
-6.58951e-08
2.8339e-06
-3.59734e-08
2.82741e-06
-1.95097e-08
2.82214e-06
-1.38009e-08
2.81835e-06
3.82813e-08
2.81463e-06
8.32559e-08
1.08957e-07
2.81325e-06
2.97176e-06
-3.07283e-09
2.96088e-06
-4.02798e-07
2.968e-06
3.4504e-07
2.98508e-06
4.33838e-07
2.9781e-06
-7.03322e-08
2.97477e-06
2.91737e-09
2.96733e-06
-1.75348e-07
2.97292e-06
1.40582e-07
2.96462e-06
-1.91113e-08
2.97965e-06
2.35853e-07
2.97699e-06
1.24338e-07
2.98183e-06
4.79185e-08
2.97789e-06
1.23268e-08
2.97203e-06
-6.00341e-08
2.96929e-06
-3.32339e-08
2.96274e-06
-1.29639e-08
2.95713e-06
-8.18764e-09
2.95369e-06
4.17229e-08
2.95035e-06
8.65917e-08
1.10366e-07
2.94895e-06
3.11396e-06
-2.02876e-09
3.1027e-06
-3.91531e-07
3.11027e-06
3.37463e-07
3.12706e-06
4.17046e-07
3.12066e-06
-6.39236e-08
3.11668e-06
6.89477e-09
3.10961e-06
-1.6828e-07
3.11497e-06
1.35223e-07
3.10681e-06
-1.095e-08
3.12167e-06
2.20995e-07
3.1193e-06
1.26703e-07
3.1237e-06
4.35206e-08
3.12013e-06
1.58948e-08
3.1139e-06
-5.38043e-08
3.11117e-06
-3.04979e-08
3.10455e-06
-6.34633e-09
3.0986e-06
-2.243e-09
3.09552e-06
4.48112e-08
3.09265e-06
8.94607e-08
1.11845e-07
3.09117e-06
3.26298e-06
-1.09405e-09
3.2513e-06
-3.79856e-07
3.25941e-06
3.29351e-07
3.27577e-06
4.00693e-07
3.27004e-06
-5.81934e-08
3.26538e-06
1.1551e-08
3.25869e-06
-1.61592e-07
3.26387e-06
1.30046e-07
3.25579e-06
-2.872e-09
3.27053e-06
2.06257e-07
3.26835e-06
1.28877e-07
3.27234e-06
3.953e-08
3.26916e-06
1.90829e-08
3.2625e-06
-4.71464e-08
3.2598e-06
-2.78021e-08
3.25318e-06
2.73279e-10
3.24684e-06
4.10457e-09
3.24411e-06
4.75366e-08
3.24179e-06
9.17844e-08
1.13358e-07
3.24027e-06
3.41913e-06
-2.90507e-10
3.40701e-06
-3.67743e-07
3.41575e-06
3.2062e-07
3.43152e-06
3.84917e-07
3.42655e-06
-5.32213e-08
3.42122e-06
1.68831e-08
3.41486e-06
-1.55232e-07
3.41995e-06
1.2495e-07
3.41186e-06
5.22337e-09
3.42656e-06
1.91559e-07
3.4245e-06
1.30932e-07
3.42805e-06
3.59772e-08
3.42533e-06
2.18104e-08
3.41814e-06
-3.9959e-08
3.41545e-06
-2.51101e-08
3.40901e-06
6.70786e-09
3.40219e-06
1.09298e-08
3.39976e-06
4.9965e-08
3.39806e-06
9.34794e-08
1.14803e-07
3.39662e-06
3.58276e-06
3.5849e-10
3.57017e-06
-3.55154e-07
3.57961e-06
3.11182e-07
3.59468e-06
3.69848e-07
3.59053e-06
-4.90678e-08
3.58456e-06
2.28542e-08
3.57842e-06
-1.49098e-07
3.58358e-06
1.19788e-07
3.57534e-06
1.34656e-08
3.59007e-06
1.76831e-07
3.58813e-06
1.32872e-07
3.59111e-06
3.29993e-08
3.589e-06
2.39215e-08
3.58116e-06
-3.21257e-08
3.57838e-06
-2.23243e-08
3.57235e-06
1.27375e-08
3.56507e-06
1.82068e-08
3.56276e-06
5.22743e-08
3.56177e-06
9.4469e-08
1.1602e-07
3.56056e-06
3.75424e-06
8.28611e-10
3.74113e-06
-3.4205e-07
3.75136e-06
3.00953e-07
3.76561e-06
3.55598e-07
3.76231e-06
-4.57639e-08
3.75578e-06
2.93859e-08
3.74971e-06
-1.43035e-07
3.75514e-06
1.14364e-07
3.74661e-06
2.19949e-08
3.76138e-06
1.62055e-07
3.75966e-06
1.34592e-07
3.76182e-06
3.08451e-08
3.7605e-06
2.52363e-08
3.75198e-06
-2.35997e-08
3.74888e-06
-1.9224e-08
3.74348e-06
1.81345e-08
3.73593e-06
2.57543e-08
3.7335e-06
5.47057e-08
3.73321e-06
9.47616e-08
1.16808e-07
3.73242e-06
3.93392e-06
1.0956e-09
3.92026e-06
-3.28393e-07
3.93136e-06
2.89856e-07
3.9447e-06
3.42259e-07
3.94224e-06
-4.33016e-08
3.93528e-06
3.6345e-08
3.92908e-06
-1.36833e-07
3.93498e-06
1.08457e-07
3.92605e-06
3.09238e-08
3.9408e-06
1.47312e-07
3.93953e-06
1.35856e-07
3.94052e-06
2.98544e-08
3.94013e-06
2.56268e-08
3.93104e-06
-1.45131e-08
3.92728e-06
-1.5455e-08
3.92268e-06
2.27335e-08
3.91518e-06
3.32535e-08
3.91242e-06
5.74643e-08
3.91268e-06
9.44969e-08
1.1698e-07
3.91251e-06
4.12221e-06
1.13619e-09
4.10797e-06
-3.1415e-07
4.11998e-06
2.77838e-07
4.13236e-06
3.29888e-07
4.13068e-06
-4.1624e-08
4.12348e-06
4.35406e-08
4.11688e-06
-1.30232e-07
4.12351e-06
1.01833e-07
4.11412e-06
4.03073e-08
4.12863e-06
1.32803e-07
4.12816e-06
1.36325e-07
4.12763e-06
3.03876e-08
4.12815e-06
2.51093e-08
4.11883e-06
-5.19961e-09
4.11407e-06
-1.06947e-08
4.11026e-06
2.65417e-08
4.10318e-06
4.03358e-08
4.10002e-06
6.06311e-08
4.10058e-06
9.39313e-08
1.16429e-07
4.10113e-06
4.31951e-06
9.29603e-10
4.30466e-06
-2.99297e-07
4.31762e-06
2.64872e-07
4.32902e-06
3.1849e-07
4.32801e-06
-4.06138e-08
4.32083e-06
5.07255e-08
4.31353e-06
-1.22938e-07
4.32108e-06
9.429e-08
4.31129e-06
5.00954e-08
4.32523e-06
1.1886e-07
4.32596e-06
1.35592e-07
4.32361e-06
3.27424e-08
4.3248e-06
2.39137e-08
4.31576e-06
3.84583e-09
4.30981e-06
-4.74274e-09
4.30664e-06
2.97111e-08
4.30028e-06
4.66912e-08
4.29677e-06
6.41379e-08
4.29738e-06
9.33278e-08
1.15221e-07
4.29859e-06
4.52624e-06
4.5964e-10
4.51077e-06
-2.83827e-07
4.52468e-06
2.50968e-07
4.53516e-06
3.08003e-07
4.53463e-06
-4.00841e-08
4.52776e-06
5.76043e-08
4.51947e-06
-1.14651e-07
4.52806e-06
8.57011e-08
4.51804e-06
6.01108e-08
4.53098e-06
1.05919e-07
4.53326e-06
1.33321e-07
4.52904e-06
3.69559e-08
4.53043e-06
2.25234e-08
4.52219e-06
1.20878e-08
4.51506e-06
2.3829e-09
4.51225e-06
3.25306e-08
4.50682e-06
5.21136e-08
4.50316e-06
6.7805e-08
4.5036e-06
9.28838e-08
1.13553e-07
4.50527e-06
4.74286e-06
-2.83144e-10
4.72678e-06
-2.67754e-07
4.74157e-06
2.36187e-07
4.75128e-06
2.98286e-07
4.75097e-06
-3.97745e-08
4.74473e-06
6.3844e-08
4.73519e-06
-1.05104e-07
4.74481e-06
7.60815e-08
4.7349e-06
7.00146e-08
4.74633e-06
9.44915e-08
4.75033e-06
1.29316e-07
4.74454e-06
4.27525e-08
4.74551e-06
2.15559e-08
4.73845e-06
1.91394e-08
4.73043e-06
1.04065e-08
4.72759e-06
3.53689e-08
4.72321e-06
5.64984e-08
4.71958e-06
7.14312e-08
4.71978e-06
9.26806e-08
1.11665e-07
4.72167e-06
4.96981e-06
-1.29893e-09
4.95318e-06
-2.51125e-07
4.96872e-06
2.2065e-07
4.9779e-06
2.89102e-07
4.97748e-06
-3.93542e-08
4.97223e-06
6.91021e-08
4.96123e-06
-9.41071e-08
4.9717e-06
6.56157e-08
4.96236e-06
7.93534e-08
4.97179e-06
8.50558e-08
4.97749e-06
1.23617e-07
4.97064e-06
4.96079e-08
4.97058e-06
2.16159e-08
4.96491e-06
2.48079e-08
4.95642e-06
1.88951e-08
4.95324e-06
3.85493e-08
4.94986e-06
5.98721e-08
4.9465e-06
7.47982e-08
4.94644e-06
9.27406e-08
1.09721e-07
4.94838e-06
5.20759e-06
-2.57559e-09
5.19049e-06
-2.34026e-07
5.20659e-06
2.04553e-07
5.21558e-06
2.80113e-07
5.21465e-06
-3.84256e-08
5.2107e-06
7.30539e-08
5.19821e-06
-8.16205e-08
5.20912e-06
5.471e-08
5.2009e-06
8.75697e-08
5.20798e-06
7.79745e-08
5.21509e-06
1.16514e-07
5.20781e-06
5.68859e-08
5.20629e-06
2.31299e-08
5.20194e-06
2.91593e-08
5.19351e-06
2.7332e-08
5.18977e-06
4.22815e-08
5.18726e-06
6.23864e-08
5.18437e-06
7.76869e-08
5.18406e-06
9.30481e-08
1.07809e-07
5.18598e-06
5.4567e-06
-4.08774e-09
5.43926e-06
-2.16583e-07
5.45564e-06
1.88171e-07
5.46488e-06
2.70869e-07
5.463e-06
-3.65402e-08
5.46062e-06
7.543e-08
5.44677e-06
-6.77668e-08
5.45755e-06
4.39331e-08
5.45099e-06
9.41282e-08
5.45559e-06
7.33697e-08
5.46361e-06
1.085e-07
5.45647e-06
6.40216e-08
5.45335e-06
2.62473e-08
5.45008e-06
3.24301e-08
5.44218e-06
3.52356e-08
5.4378e-06
4.66584e-08
5.43589e-06
6.43004e-08
5.43369e-06
7.9881e-08
5.43319e-06
9.35525e-08
1.05995e-07
5.435e-06
5.71767e-06
-5.79508e-09
5.70005e-06
-1.98966e-07
5.71636e-06
1.71863e-07
5.72639e-06
2.60841e-07
5.72309e-06
-3.32478e-08
5.72244e-06
7.60871e-08
5.70753e-06
-5.28616e-08
5.7175e-06
3.39608e-08
5.713e-06
9.86346e-08
5.71528e-06
7.1088e-08
5.72359e-06
1.00184e-07
5.71707e-06
7.0546e-08
5.71245e-06
3.08629e-08
5.70991e-06
3.49753e-08
5.70291e-06
4.22316e-08
5.69795e-06
5.16222e-08
5.69629e-06
6.59603e-08
5.69494e-06
8.12277e-08
5.69439e-06
9.41082e-08
1.04375e-07
5.69601e-06
5.99104e-06
-7.6396e-09
5.97346e-06
-1.81392e-07
5.98926e-06
1.5607e-07
6.00063e-06
2.49465e-07
5.99556e-06
-2.81772e-08
5.99655e-06
7.51027e-08
5.98118e-06
-3.74987e-08
5.98962e-06
2.55224e-08
5.9873e-06
1.00955e-07
5.98771e-06
7.06837e-08
5.99566e-06
9.22295e-08
5.99011e-06
7.60929e-08
5.98429e-06
3.66835e-08
5.98209e-06
3.71799e-08
5.97622e-06
4.81024e-08
5.97085e-06
5.69901e-08
5.96909e-06
6.77189e-08
5.9686e-06
8.17212e-08
5.96824e-06
9.44703e-08
1.03023e-07
5.96959e-06
6.2774e-06
-9.54781e-09
6.26011e-06
-1.64106e-07
6.27489e-06
1.41293e-07
6.2881e-06
2.36249e-07
6.28111e-06
-2.11866e-08
6.2834e-06
7.28172e-08
6.26838e-06
-2.24819e-08
6.27463e-06
1.92735e-08
6.27431e-06
1.01271e-07
6.27345e-06
7.15469e-08
6.28056e-06
8.51214e-08
6.27605e-06
8.06012e-08
6.26946e-06
4.3279e-08
6.26729e-06
3.93455e-08
6.26262e-06
5.27724e-08
6.25714e-06
6.2469e-08
6.255e-06
6.98634e-08
6.25516e-06
8.15596e-08
6.2553e-06
9.43293e-08
1.0192e-07
6.2564e-06
6.57735e-06
-1.14308e-08
6.56061e-06
-1.47368e-07
6.57387e-06
1.2804e-07
6.58921e-06
2.20909e-07
6.58057e-06
-1.25498e-08
6.58353e-06
6.98547e-08
6.56966e-06
-8.61407e-09
6.57333e-06
1.56061e-08
6.57455e-06
1.00049e-07
6.57301e-06
7.30864e-08
6.57904e-06
7.90965e-08
6.57557e-06
8.40684e-08
6.56845e-06
5.03989e-08
6.56618e-06
4.16194e-08
6.5627e-06
5.62473e-08
6.55744e-06
6.77297e-08
6.55476e-06
7.25449e-08
6.55524e-06
8.10847e-08
6.5561e-06
9.34621e-08
1.00911e-07
6.55711e-06
6.89155e-06
-1.31888e-08
6.87561e-06
-1.31431e-07
6.88697e-06
1.16679e-07
6.90437e-06
2.03515e-07
6.89479e-06
-2.97499e-09
6.89748e-06
6.71608e-08
6.88544e-06
3.43542e-09
6.88662e-06
1.4421e-08
6.88866e-06
9.80098e-08
6.88693e-06
7.48121e-08
6.89197e-06
7.40592e-08
6.88937e-06
8.66647e-08
6.88194e-06
5.78336e-08
6.87939e-06
4.41725e-08
6.87708e-06
5.85522e-08
6.87237e-06
7.24457e-08
6.86914e-06
7.57665e-08
6.86956e-06
8.06741e-08
6.87118e-06
9.18368e-08
9.974e-08
6.87235e-06
7.22066e-06
-1.4712e-08
7.20575e-06
-1.16519e-07
7.21503e-06
1.07396e-07
7.2341e-06
1.84444e-07
7.22461e-06
6.51621e-09
7.22604e-06
6.57282e-08
7.21609e-06
1.33846e-08
7.21539e-06
1.51203e-08
7.21744e-06
9.59634e-08
7.21577e-06
7.64807e-08
7.22011e-06
6.97208e-08
7.21829e-06
8.84849e-08
7.21066e-06
6.54628e-08
7.20761e-06
4.7227e-08
7.20634e-06
5.98219e-08
7.20253e-06
7.62548e-08
7.19892e-06
7.93726e-08
7.19891e-06
8.06856e-08
7.20113e-06
8.96155e-08
9.81412e-08
7.20273e-06
7.5654e-06
-1.58886e-08
7.55173e-06
-1.02849e-07
7.55889e-06
1.00239e-07
7.57901e-06
1.64326e-07
7.57074e-06
1.47818e-08
7.57012e-06
6.63487e-08
7.56214e-06
2.1364e-08
7.56041e-06
1.68568e-08
7.56194e-06
9.44244e-08
7.5601e-06
7.83279e-08
7.56402e-06
6.57982e-08
7.56312e-06
8.93864e-08
7.55543e-06
7.31552e-08
7.55162e-06
5.10353e-08
7.55113e-06
6.03126e-08
7.54852e-06
7.8863e-08
7.54485e-06
8.30448e-08
7.54416e-06
8.13697e-08
7.54666e-06
8.71201e-08
9.59191e-08
7.54888e-06
7.92653e-06
-1.66072e-08
7.91434e-06
-9.06624e-08
7.91941e-06
9.51685e-08
7.93977e-06
1.4397e-07
7.93373e-06
2.08261e-08
7.93074e-06
6.93335e-08
7.92423e-06
2.78786e-08
7.9223e-06
1.87852e-08
7.92307e-06
9.36505e-08
7.92066e-06
8.07415e-08
7.92421e-06
6.22505e-08
7.92454e-06
8.90555e-08
7.91707e-06
8.06205e-08
7.9123e-06
5.58114e-08
7.91218e-06
6.04297e-08
7.91094e-06
8.01001e-08
7.90762e-06
8.63671e-08
7.90621e-06
8.27779e-08
7.90855e-06
8.47829e-08
9.29887e-08
7.91148e-06
8.30484e-06
-1.67621e-08
8.29437e-06
-8.01969e-08
8.29751e-06
9.20262e-08
8.31714e-06
1.24347e-07
8.31406e-06
2.39023e-08
8.30898e-06
7.4409e-08
8.30299e-06
3.38726e-08
8.30159e-06
2.01867e-08
8.30178e-06
9.34589e-08
8.29839e-06
8.41303e-08
8.30128e-06
5.93644e-08
8.30311e-06
8.72235e-08
8.29638e-06
8.73473e-08
8.2906e-06
6.15961e-08
8.29036e-06
6.06709e-08
8.29043e-06
8.00285e-08
8.2879e-06
8.88928e-08
8.28597e-06
8.47138e-08
8.28769e-06
8.30589e-08
8.94413e-08
8.29124e-06
8.70116e-06
-1.626e-08
8.69264e-06
-7.1676e-08
8.69405e-06
9.06121e-08
8.71199e-06
1.06413e-07
8.71225e-06
2.36436e-08
8.70596e-06
8.06938e-08
8.69929e-06
4.05459e-08
8.69876e-06
2.07139e-08
8.69904e-06
9.31825e-08
8.69441e-06
8.87543e-08
8.6961e-06
5.76811e-08
8.69942e-06
8.38952e-08
8.69405e-06
9.27184e-08
8.6875e-06
6.81536e-08
8.68663e-06
6.15403e-08
8.68772e-06
7.89383e-08
8.68634e-06
9.02712e-08
8.68427e-06
8.67783e-08
8.68511e-06
8.22196e-08
8.5663e-08
8.68889e-06
9.1164e-06
-1.50443e-08
9.10991e-06
-6.51808e-08
9.10996e-06
9.05649e-08
9.12535e-06
9.10221e-08
9.12887e-06
2.01174e-08
9.12263e-06
8.6933e-08
9.11431e-06
4.88738e-08
9.11436e-06
2.06598e-08
9.11553e-06
9.20106e-08
9.10999e-06
9.42957e-08
9.10975e-06
5.79239e-08
9.11418e-06
7.9459e-08
9.11073e-06
9.61731e-08
9.10389e-06
7.49976e-08
9.10204e-06
6.33863e-08
9.1037e-06
7.7282e-08
9.1036e-06
9.03709e-08
9.10189e-06
8.84824e-08
9.10191e-06
8.22022e-08
8.2245e-08
9.10533e-06
9.55152e-06
-1.31002e-08
9.54699e-06
-6.06556e-08
9.54613e-06
9.14258e-08
9.55838e-06
7.87747e-08
9.56462e-06
1.38707e-08
9.55981e-06
9.1742e-08
9.54935e-06
5.93408e-08
9.54913e-06
2.08786e-08
9.55191e-06
8.92301e-08
9.54615e-06
1.00055e-07
9.54351e-06
6.05688e-08
9.54827e-06
7.46927e-08
9.54708e-06
9.73676e-08
9.54057e-06
8.15045e-08
9.53771e-06
6.62513e-08
9.53938e-06
7.56063e-08
9.54044e-06
8.93134e-08
9.5395e-06
8.9419e-08
9.53907e-06
8.26342e-08
7.96635e-08
9.54165e-06
1.00075e-05
-1.04696e-08
1.00047e-05
-5.78701e-08
1.00035e-05
9.26116e-08
1.00123e-05
7.00319e-08
1.00204e-05
5.78871e-09
1.00182e-05
9.38932e-08
1.00058e-05
7.17478e-08
1.00042e-05
2.24837e-08
1.00088e-05
8.46691e-08
1.00037e-05
1.05114e-07
9.99884e-06
6.54235e-08
1.00028e-05
7.07111e-08
1.00038e-05
9.63886e-08
9.99831e-06
8.69941e-08
9.99467e-06
6.98981e-08
9.99591e-06
7.43624e-08
9.99783e-06
8.73958e-08
9.99782e-06
8.94282e-08
9.99749e-06
8.29617e-08
7.80473e-08
9.99911e-06
1.04854e-05
-7.25954e-09
1.0484e-05
-5.64124e-08
1.04832e-05
9.3425e-08
1.04883e-05
6.4922e-08
1.04971e-05
-3.04208e-09
1.04983e-05
9.26933e-08
1.0485e-05
8.50664e-08
1.04809e-05
2.65635e-08
1.04868e-05
7.87212e-08
1.04834e-05
1.08525e-07
1.04769e-05
7.19524e-08
1.04792e-05
6.83982e-08
1.04818e-05
9.37675e-08
1.04779e-05
9.09196e-08
1.04739e-05
7.39592e-08
1.04744e-05
7.37732e-08
1.04769e-05
8.4975e-08
1.04777e-05
8.85864e-08
1.04779e-05
8.2741e-08
7.71008e-08
1.04789e-05
1.09864e-05
-3.62943e-09
1.09858e-05
-5.57835e-08
1.0986e-05
9.32086e-08
1.09876e-05
6.32923e-08
1.0996e-05
-1.14082e-08
1.10007e-05
8.79178e-08
1.09879e-05
9.79051e-08
1.09808e-05
3.36967e-08
1.09872e-05
7.22594e-08
1.09861e-05
1.0964e-07
1.09787e-05
7.93743e-08
1.09789e-05
6.81595e-08
1.09823e-05
9.03679e-08
1.09802e-05
9.30354e-08
1.09763e-05
7.79261e-08
1.09761e-05
7.3924e-08
1.09787e-05
8.2371e-08
1.09803e-05
8.70247e-08
1.09811e-05
8.19269e-08
7.61789e-08
1.0982e-05
1.15115e-05
2.18275e-10
1.15112e-05
-5.54494e-08
1.1513e-05
9.14353e-08
1.15116e-05
6.46738e-08
1.15182e-05
-1.80544e-08
1.15264e-05
7.97735e-08
1.15154e-05
1.0883e-07
1.15054e-05
4.37029e-08
1.15111e-05
6.65732e-08
1.15124e-05
1.08341e-07
1.15053e-05
8.65386e-08
1.15033e-05
7.01141e-08
1.15067e-05
8.7009e-08
1.15062e-05
9.35317e-08
1.15029e-05
8.12145e-08
1.1502e-05
7.47568e-08
1.15045e-05
7.98972e-08
1.15067e-05
8.48632e-08
1.15079e-05
8.06824e-08
7.48668e-08
1.15092e-05
1.2062e-05
4.05062e-09
1.20614e-05
-5.48513e-08
1.20651e-05
8.7726e-08
1.20614e-05
6.83297e-08
1.20652e-05
-2.17962e-08
1.20761e-05
6.88415e-08
1.20685e-05
1.16461e-07
1.20562e-05
5.59813e-08
1.20599e-05
6.29243e-08
1.20634e-05
1.04846e-07
1.20573e-05
9.25672e-08
1.20537e-05
7.37518e-08
1.20562e-05
8.44803e-08
1.2057e-05
9.27967e-08
1.20546e-05
8.35354e-08
1.20534e-05
7.59457e-08
1.20555e-05
7.7865e-08
1.20581e-05
8.22216e-08
1.20597e-05
7.91032e-08
7.31318e-08
1.20614e-05
1.2639e-05
7.63038e-09
1.26376e-05
-5.34826e-08
1.26434e-05
8.19569e-08
1.26384e-05
7.33446e-08
1.26385e-05
-2.18923e-08
1.26512e-05
5.6135e-08
1.26478e-05
1.19884e-07
1.26342e-05
6.95263e-08
1.26352e-05
6.2004e-08
1.26401e-05
9.98986e-08
1.26358e-05
9.68668e-08
1.26312e-05
7.83447e-08
1.26325e-05
8.31736e-08
1.2634e-05
9.13403e-08
1.26326e-05
8.48724e-08
1.26315e-05
7.70497e-08
1.2633e-05
7.64182e-08
1.26358e-05
7.93992e-08
1.26378e-05
7.70979e-08
7.11514e-08
1.26398e-05
1.32438e-05
1.07442e-08
1.32413e-05
-5.09699e-08
1.32489e-05
7.432e-08
1.32436e-05
7.8683e-08
1.32399e-05
-1.81598e-08
1.32531e-05
4.29518e-08
1.3254e-05
1.18987e-07
1.32406e-05
8.2831e-08
1.32387e-05
6.39886e-08
1.3244e-05
9.45978e-08
1.32418e-05
9.90282e-08
1.32369e-05
8.32281e-08
1.3237e-05
8.30557e-08
1.32387e-05
8.97231e-08
1.32382e-05
8.53225e-08
1.32374e-05
7.78437e-08
1.32385e-05
7.53637e-08
1.32411e-05
7.67235e-08
1.32435e-05
7.46931e-08
6.89837e-08
1.32457e-05
1.38777e-05
1.32327e-08
1.38738e-05
-4.71222e-08
1.38828e-05
6.53228e-08
1.38782e-05
8.32917e-08
1.3871e-05
-1.0978e-08
1.38831e-05
3.08677e-08
1.3888e-05
1.14104e-07
1.38765e-05
9.4351e-08
1.38718e-05
6.86397e-08
1.38765e-05
8.99407e-08
1.38764e-05
9.91348e-08
1.3872e-05
8.76188e-08
1.38711e-05
8.3946e-08
1.38726e-05
8.82584e-08
1.38728e-05
8.51083e-08
1.38724e-05
7.82263e-08
1.38733e-05
7.44437e-08
1.38758e-05
7.42551e-08
1.38784e-05
7.20955e-08
6.66388e-08
1.38807e-05
1.45419e-05
1.49992e-08
1.45367e-05
-4.19144e-08
1.45464e-05
5.5656e-08
1.45434e-05
8.62887e-08
1.45335e-05
-1.16553e-09
1.4543e-05
2.13685e-08
1.45513e-05
1.05875e-07
1.45426e-05
1.03008e-07
1.45362e-05
7.50956e-08
1.45394e-05
8.66607e-08
1.45408e-05
9.77294e-08
1.45376e-05
9.08671e-08
1.45361e-05
8.54767e-08
1.45372e-05
8.71198e-08
1.45379e-05
8.44196e-08
1.45379e-05
7.82495e-08
1.45388e-05
7.35066e-08
1.45411e-05
7.2011e-08
1.45437e-05
6.9427e-08
6.41588e-08
1.45462e-05
1.52379e-05
1.60247e-08
1.52315e-05
-3.55129e-08
1.5241e-05
4.60984e-08
1.52402e-05
8.71093e-08
1.52288e-05
1.02147e-08
1.52347e-05
1.5465e-08
1.52453e-05
9.53167e-08
1.52401e-05
1.08208e-07
1.52329e-05
8.22514e-08
1.52345e-05
8.50537e-08
1.52368e-05
9.54855e-08
1.52348e-05
9.27984e-08
1.52333e-05
8.70445e-08
1.5234e-05
8.63663e-08
1.52351e-05
8.33334e-08
1.52355e-05
7.78771e-08
1.52364e-05
7.26101e-08
1.52385e-05
6.98531e-08
1.52411e-05
6.6911e-08
6.15837e-08
1.52436e-05
1.5967e-05
1.63652e-08
1.59597e-05
-2.82702e-08
1.59685e-05
3.73855e-08
1.59699e-05
8.56548e-08
1.59582e-05
2.19642e-08
1.59602e-05
1.34325e-08
1.59716e-05
8.38919e-08
1.59701e-05
1.09748e-07
1.59633e-05
8.90371e-08
1.59633e-05
8.50555e-08
1.59659e-05
9.29097e-08
1.59652e-05
9.34966e-08
1.59639e-05
8.82757e-08
1.59646e-05
8.57523e-08
1.59658e-05
8.20445e-08
1.59668e-05
7.69087e-08
1.59677e-05
7.17551e-08
1.59697e-05
6.7825e-08
1.59721e-05
6.45102e-08
5.91712e-08
1.59745e-05
1.67308e-05
1.61367e-08
1.67232e-05
-2.06276e-08
1.67305e-05
3.00634e-08
1.67338e-05
8.23206e-08
1.67229e-05
3.28679e-08
1.67214e-05
1.49377e-08
1.67322e-05
7.31029e-08
1.67341e-05
1.07851e-07
1.67286e-05
9.45565e-08
1.67274e-05
8.62525e-08
1.67298e-05
9.05212e-08
1.67302e-05
9.30414e-08
1.67294e-05
8.90778e-08
1.67302e-05
8.50225e-08
1.67316e-05
8.06007e-08
1.67332e-05
7.53644e-08
1.67343e-05
7.05928e-08
1.6736e-05
6.61359e-08
1.67384e-05
6.21282e-08
5.70704e-08
1.67405e-05
1.7531e-05
1.54891e-08
1.75235e-05
-1.30738e-08
1.7529e-05
2.45371e-08
1.75337e-05
7.75791e-08
1.75244e-05
4.21946e-08
1.75202e-05
1.91714e-08
1.75293e-05
6.40104e-08
1.75337e-05
1.03364e-07
1.75301e-05
9.81714e-08
1.75284e-05
8.79763e-08
1.75303e-05
8.86073e-08
1.75317e-05
9.17017e-08
1.75314e-05
8.92979e-08
1.75322e-05
8.42549e-08
1.7534e-05
7.88217e-08
1.75359e-05
7.34911e-08
1.75375e-05
6.89115e-08
1.75391e-05
6.46008e-08
1.75411e-05
6.01066e-08
5.50811e-08
1.75431e-05
1.83693e-05
1.45788e-08
1.83622e-05
-5.994e-09
1.83658e-05
2.09353e-08
1.83713e-05
7.20365e-08
1.83639e-05
4.95679e-08
1.83581e-05
2.50578e-08
1.83648e-05
5.72878e-08
1.83708e-05
9.73e-08
1.83694e-05
9.95725e-08
1.83678e-05
8.96287e-08
1.83693e-05
8.71162e-08
1.83711e-05
8.98505e-08
1.83716e-05
8.88263e-08
1.83723e-05
8.35855e-08
1.83742e-05
7.69327e-08
1.83764e-05
7.12212e-08
1.83785e-05
6.68806e-08
1.83802e-05
6.2876e-08
1.83819e-05
5.83939e-08
5.32232e-08
1.83838e-05
1.92474e-05
1.35301e-08
1.9241e-05
3.9931e-10
1.92429e-05
1.90875e-08
1.92486e-05
6.62996e-08
1.92432e-05
5.49868e-08
1.92367e-05
3.15285e-08
1.9241e-05
5.30064e-08
1.92476e-05
9.06742e-08