/*--------------------------------*- C++ -*----------------------------------*\
| =========                 |                                                 |
| \\      /  F ield         | OpenFOAM: The Open Source CFD Toolbox           |
|  \\    /   O peration     | Version:  2106                                  |
|   \\  /    A nd           | Website:  www.openfoam.com                      |
|    \\/     M anipulation  |                                                 |
\*---------------------------------------------------------------------------*/
FoamFile
{
    version     2.0;
    format      ascii;
    arch        "LSB;label=32;scalar=64";
    class       volScalarField;
    location    "0.585";
    object      p;
}
// * * * * * * * * * * * * * * * * * * * * * * * * * * * * * * * * * * * * * //

dimensions      [0 2 -2 0 0 0 0];

internalField   nonuniform List<scalar> 
9600
(
7.48665e-11
0.000333082
0.000677627
0.000734338
0.0016466
0.00226698
0.00090592
8.4968e-05
-0.000199198
0.00122287
0.000890041
0.00136829
0.00111144
0.00198148
0.0015366
0.00285548
0.00292277
0.0053389
0.00751446
0.0131433
3.89082e-06
0.000329576
0.000673917
0.00074265
0.00165178
0.00224789
0.000913334
7.86171e-05
-0.000198649
0.00123267
0.000892227
0.00135998
0.00111236
0.00197673
0.00154523
0.00285507
0.00300873
0.0053104
0.00753388
0.0124911
8.19187e-06
0.0003255
0.000670632
0.000748587
0.00165348
0.0022246
0.000922529
7.28707e-05
-0.000191307
0.00124267
0.000890862
0.00135162
0.0011193
0.00196742
0.00155857
0.00285559
0.00304502
0.00527532
0.00751816
0.0118997
1.25724e-05
0.000323925
0.000666894
0.000750965
0.001652
0.00219945
0.000929948
7.09062e-05
-0.000178535
0.0012485
0.000886837
0.00134452
0.00113071
0.00195332
0.00157393
0.00285239
0.00308053
0.00522658
0.00748665
0.0113273
1.77504e-05
0.000324639
0.000661649
0.000750549
0.00164938
0.00217191
0.000936234
7.29614e-05
-0.000162316
0.00125012
0.000881347
0.00133723
0.00114375
0.00193496
0.00159023
0.00284496
0.00311612
0.00516581
0.00743408
0.0108
2.39503e-05
0.000326985
0.000654629
0.000748076
0.00164615
0.00214217
0.000942502
7.80849e-05
-0.000144449
0.00124832
0.000875176
0.00132896
0.0011571
0.00191354
0.00160764
0.00283345
0.00315269
0.00509343
0.00736009
0.0102996
3.1094e-05
0.000330392
0.000645919
0.000744155
0.00164253
0.00211078
0.000949182
8.50897e-05
-0.000126006
0.00124418
0.000869088
0.00131955
0.00117043
0.0018901
0.00162605
0.00281849
0.00318913
0.00501456
0.00726206
0.00982482
3.90218e-05
0.000334323
0.000635843
0.000739325
0.00163872
0.00207798
0.00095643
9.3095e-05
-0.0001073
0.00123874
0.000863451
0.00130884
0.00118376
0.00186512
0.00164517
0.00280047
0.00322353
0.00492934
0.00713879
0.00937354
4.75831e-05
0.000338396
0.000624842
0.000733979
0.00163478
0.0020439
0.000964319
0.000101538
-8.8312e-05
0.00123258
0.00085834
0.00129669
0.0011972
0.0018388
0.0016646
0.00277975
0.00325336
0.00483936
0.00699062
0.00894293
5.66781e-05
0.000342411
0.000613297
0.000728353
0.00163082
0.00200864
0.000972826
0.000110059
-6.89848e-05
0.00122566
0.000853693
0.00128307
0.00121076
0.0018114
0.00168373
0.00275681
0.00327643
0.00474558
0.00681856
0.00852964
6.62616e-05
0.000346275
0.00060145
0.000722609
0.00162696
0.00197229
0.000981861
0.000118417
-4.93263e-05
0.00121916
0.0008494
0.00126808
0.00122429
0.00178326
0.00170178
0.00273221
0.00329098
0.00464854
0.00662448
0.00813004
7.63244e-05
0.000349933
0.000589411
0.000716865
0.00162335
0.00193493
0.000991303
0.000126451
-2.94208e-05
0.00121292
0.000845337
0.00125187
0.00123747
0.00175482
0.00171798
0.00270644
0.00329565
0.00454742
0.00641119
0.00774055
8.68752e-05
0.000353335
0.000577215
0.000711185
0.00162
0.00189659
0.00100103
0.000134085
-9.42068e-06
0.00120712
0.000841357
0.00123462
0.00124982
0.00172659
0.00173163
0.0026797
0.00328958
0.00444132
0.00618238
0.00735849
9.7929e-05
0.000356424
0.000564857
0.000705566
0.00161687
0.00185737
0.00101091
0.000141324
1.04461e-05
0.00120201
0.000837253
0.00121659
0.00126083
0.00169896
0.00174203
0.00265181
0.00327271
0.0043285
0.00594177
0.00698256
0.000109502
0.000359142
0.000552314
0.000699962
0.00161385
0.00181737
0.00102081
0.000148243
2.98839e-05
0.00119787
0.00083275
0.00119806
0.00127011
0.00167216
0.00174877
0.00262216
0.00324549
0.00420709
0.00569203
0.00661255
0.000121608
0.000361432
0.000539553
0.000694319
0.00161083
0.00177675
0.00103057
0.000154978
4.85523e-05
0.00119504
0.000827563
0.00117919
0.00127738
0.00164621
0.00175182
0.00258956
0.00320859
0.00407603
0.00543448
0.00624867
0.00013426
0.000363237
0.000526539
0.000688593
0.0016077
0.00173568
0.00103999
0.000161706
6.60768e-05
0.00119385
0.000821459
0.00116013
0.00128243
0.00162086
0.00175157
0.00255237
0.00316248
0.00393553
0.00516991
0.00589079
0.000147464
0.000364508
0.000513234
0.000682758
0.00160433
0.00169435
0.00104887
0.000168643
8.20446e-05
0.00119456
0.000814281
0.00114093
0.00128521
0.00159555
0.00174885
0.00250907
0.00310695
0.00378698
0.00489819
0.00553828
0.000161226
0.000365203
0.000499596
0.000676801
0.00160063
0.00165301
0.00105693
0.000176058
9.60609e-05
0.00119744
0.000805979
0.00112134
0.0012861
0.00156928
0.00174436
0.0024588
0.00304109
0.00363249
0.00461955
0.00519021
0.000175544
0.000365292
0.00048558
0.000670722
0.00159648
0.00161193
0.00106388
0.000184215
0.000107793
0.00120585
0.000796625
0.00110097
0.00128579
0.00154059
0.00173818
0.00240151
0.00296332
0.0034743
0.00433569
0.00484529
0.000190412
0.000364755
0.000471131
0.000664542
0.00159175
0.00157143
0.00106937
0.000193358
0.000116901
0.00121348
0.000786528
0.00107921
0.00128526
0.00150802
0.00172967
0.00233816
0.00287148
0.00331369
0.00404968
0.00450191
0.000205825
0.000363581
0.000456183
0.000658302
0.00158631
0.00153182
0.00107304
0.000203755
0.000123106
0.00122329
0.000776273
0.00105497
0.00128544
0.00147099
0.00171751
0.00227044
0.00276394
0.00315022
0.00376536
0.00415874
0.000221768
0.000361776
0.000440645
0.000652061
0.00158002
0.00149346
0.00107454
0.000215588
0.000126311
0.00123505
0.000766592
0.00102741
0.00128704
0.00142954
0.0016995
0.00220039
0.00264055
0.00298208
0.00348673
0.00381553
0.000238218
0.000359366
0.000424408
0.000645889
0.0015727
0.00145672
0.00107356
0.000228937
0.000126653
0.00124787
0.000758507
0.000995059
0.00129031
0.00138408
0.00167283
0.00212969
0.00250254
0.00280647
0.00321718
0.0034742
0.000255148
0.000356389
0.000407336
0.000639862
0.00156418
0.00142195
0.00106988
0.000243773
0.000124361
0.00126085
0.000753361
0.000956892
0.00130589
0.00133579
0.00163463
0.00205888
0.00235263
0.00262023
0.00295879
0.00313924
0.000272525
0.000352915
0.000389251
0.000634073
0.00155429
0.00138942
0.00106339
0.000259942
0.00011987
0.00127283
0.000752426
0.000911913
0.00131084
0.00128673
0.00158251
0.00198714
0.00219496
0.00242075
0.00271121
0.00281703
0.000290287
0.000349046
0.000369955
0.000628638
0.00154288
0.00135935
0.00105408
0.000277227
0.00011402
0.00128231
0.000756346
0.000860493
0.00131329
0.00123899
0.00151509
0.00191268
0.0020345
0.00220677
0.00247135
0.00251447
0.000308341
0.000344927
0.000349247
0.000623658
0.00152978
0.00133188
0.00104223
0.000294976
0.000107731
0.0012883
0.000765396
0.000803478
0.00131072
0.00119382
0.00143208
0.00183317
0.00187628
0.00197901
0.00223327
0.00223684
0.00032659
0.00034075
0.000326868
0.000619223
0.00151494
0.00130703
0.00102838
0.000312201
0.000101749
0.00129027
0.000779343
0.000741923
0.00130082
0.00115179
0.00133409
0.00174591
0.00172467
0.00174098
0.00198863
0.00198485
0.000344916
0.000336735
0.000302498
0.0006154
0.00149846
0.00128461
0.00101329
0.000327976
9.64957e-05
0.00128783
0.000797351
0.00067685
0.00128174
0.00111312
0.00122267
0.00164807
0.00158284
0.00149924
0.00172934
0.00175194
0.000363138
0.000333194
0.00027585
0.000612095
0.00148054
0.00126428
0.000997955
0.000341329
9.20057e-05
0.00128114
0.000818132
0.000608827
0.00125173
0.0010781
0.00110019
0.00153654
0.00145162
0.00126192
0.00145221
0.00152551
0.00038107
0.000330507
0.000246655
0.000609046
0.00146156
0.00124591
0.000983489
0.00035181
8.78595e-05
0.00127059
0.000840515
0.000538175
0.00120926
0.00104718
0.000969812
0.00140805
0.00132893
0.00103705
0.00116126
0.00129056
0.000398503
0.000329063
0.00021469
0.000605893
0.00144207
0.00123052
0.000970898
0.00035869
8.28459e-05
0.00125678
0.000864011
0.000464955
0.00115293
0.00102057
0.000835629
0.00125995
0.00121051
0.000830407
0.000865314
0.0010362
0.000415135
0.000329275
0.000179943
0.000602063
0.00142274
0.00121078
0.000960596
0.000360631
7.56047e-05
0.00123961
0.000886346
0.000389364
0.00108128
0.000998045
0.000702692
0.00109104
0.00109091
0.000644514
0.000573606
0.000760291
0.000430637
0.000331585
0.000142571
0.000596605
0.0014044
0.00118952
0.000952632
0.000347048
6.48462e-05
0.00121855
0.000912127
0.000311991
0.00099249
0.000978449
0.000577037
0.000901897
0.00096381
0.00047977
0.000294011
0.00046721
0.000444711
0.000336419
0.000102861
0.00058829
0.00138806
0.00116642
0.000946853
0.000352635
4.91733e-05
0.00119236
0.000940038
0.000233902
0.000884518
0.000959339
0.000465311
0.000695524
0.000821696
0.000334838
3.39976e-05
0.000163752
0.000457015
0.000344084
6.1463e-05
0.000575647
0.00137473
0.00114136
0.000942023
0.000362306
2.80252e-05
0.00115826
0.000969961
0.000157995
0.000756126
0.000935895
0.000373589
0.000478178
0.000656648
0.000205064
-0.000198897
-0.000141905
0.00046717
0.000354798
1.93767e-05
0.000556868
0.00136509
0.00111516
0.000935785
0.000377442
2.40117e-06
0.00111219
0.00100063
8.95802e-05
0.000608018
0.000900282
0.000304796
0.000259181
0.000463914
8.14681e-05
-0.000398953
-0.000438954
0.000474788
0.000368677
-2.21158e-05
0.000530238
0.00135941
0.00108969
0.000925058
0.000398854
-2.5156e-05
0.00105093
0.00102969
3.44728e-05
0.000442904
0.000843684
0.000256584
4.98543e-05
0.000244763
-4.78555e-05
-0.000565935
-0.000713863
0.000479485
0.00038564
-6.14052e-05
0.000495433
0.00135726
0.00106735
0.000906749
0.000425946
-5.04601e-05
0.000972692
0.00105248
-3.12831e-06
0.000265453
0.000759456
0.000223572
-0.000139862
5.46642e-06
-0.000194336
-0.000706849
-0.000954206
0.000480879
0.000405428
-9.64936e-05
0.000447769
0.00135688
0.00105096
0.000878947
0.000455954
-6.84112e-05
0.000877773
0.00106178
-2.11292e-05
8.43229e-05
0.000644706
0.000197575
-0.000303046
-0.000244821
-0.000364998
-0.000833887
-0.0011536
0.000478609
0.000427532
-0.000125156
0.000387927
0.00135533
0.0010435
0.000841414
0.000483998
-7.47116e-05
0.000767359
0.00105017
-2.16202e-05
-8.96964e-05
0.000500509
0.000168545
-0.000436185
-0.000495473
-0.000560871
-0.000960896
-0.00131538
0.000472089
0.000451176
-0.000145381
0.00031686
0.00134872
0.0010471
0.000794951
0.000504113
-6.73063e-05
0.000649722
0.00101294
-1.09223e-05
-0.000247931
0.000331333
0.000126784
-0.000539934
-0.000735285
-0.000778066
-0.00109902
-0.00145068
0.000461881
0.00047542
-0.000155457
0.000236487
0.00133228
0.00106251
0.000743229
0.000510517
-4.60362e-05
0.000535099
0.000949182
1.82021e-06
-0.000386333
0.000144245
6.49251e-05
-0.000619313
-0.000954307
-0.00100925
-0.00125377
-0.0015748
0.000447929
0.00049897
-0.000153958
0.000149384
0.00130112
0.00108898
0.000692362
0.000499198
-1.41599e-05
0.000430888
0.000861127
7.68608e-06
-0.000504155
-5.27508e-05
-2.13734e-05
-0.000682236
-0.00114569
-0.00124521
-0.00142448
-0.00170071
0.000430393
0.000520325
-0.00013994
5.91604e-05
0.00125074
0.00112356
0.000648405
0.000468731
2.79794e-05
0.000345639
0.000755959
2.77812e-07
-0.000603333
-0.000251948
-0.000133284
-0.000737665
-0.00130654
-0.00147724
-0.00160681
-0.00183253
0.000409822
0.000537861
-0.00011338
-2.97715e-05
0.00117792
0.0011612
0.000617164
0.000419628
5.38698e-05
0.000278636
0.000643873
-2.28579e-05
-0.000687898
-0.000446655
-0.000268778
-0.000794311
-0.00143768
-0.00169741
-0.00179736
-0.00196739
0.000387095
0.00055007
-7.488e-05
-0.000112803
0.00108171
0.00119493
0.000602595
0.000355643
6.53596e-05
0.000228644
0.000533224
-6.09147e-05
-0.00076208
-0.000631951
-0.000423142
-0.00086035
-0.00154288
-0.001898
-0.00199441
-0.00210385
0.000362972
0.000556084
-2.65707e-05
-0.000185842
0.000963151
0.00121714
0.000604945
0.000284603
5.80741e-05
0.00018821
0.00042731
-0.000111503
-0.000829183
-0.000803885
-0.000589238
-0.000941266
-0.00162959
-0.00207339
-0.00219391
-0.00224568
0.000338305
0.00055517
5.26286e-05
-0.000245058
0.000825705
0.00122055
0.000621787
0.000215459
3.10772e-05
0.000150658
0.000328822
-0.000172226
-0.000892736
-0.00095991
-0.000759331
-0.0010371
-0.00170818
-0.00222367
-0.0023872
-0.00239633
0.000314062
0.000546182
0.000106929
-0.000287633
0.0006756
0.00119895
0.000647848
0.000154338
-1.38898e-05
0.000110512
0.000238571
-0.000240202
-0.000955571
-0.00110026
-0.000925921
-0.00114216
-0.00178526
-0.00235363
-0.00256717
-0.00255368
0.000290921
0.000528822
0.000159177
-0.000311462
0.000520599
0.00114855
0.000675042
0.0001047
-7.20638e-05
6.48314e-05
0.000155395
-0.000312998
-0.00101936
-0.00122683
-0.00108344
-0.00125026
-0.00185983
-0.00246973
-0.00273336
-0.00271212
0.00026925
0.000503644
0.000205615
-0.000316376
0.000368737
0.00106835
0.000694544
6.75098e-05
-0.000139052
1.15084e-05
7.8872e-05
-0.000388288
-0.0010877
-0.00134247
-0.00122832
-0.00135537
-0.00192699
-0.00257271
-0.00288988
-0.00286838
0.000249272
0.000471722
0.000243024
-0.000304218
0.000226636
0.000959961
0.000699224
4.21513e-05
-0.000210641
-5.23595e-05
8.55018e-06
-0.00046155
-0.00116276
-0.00145287
-0.00136034
-0.00145091
-0.00198299
-0.00265716
-0.00303803
-0.00302494
0.000230937
0.000434595
0.000269248
-0.000278898
9.86828e-05
0.000828951
0.000684006
2.39844e-05
-0.00028253
-0.000126928
-5.89378e-05
-0.000528931
-0.00124136
-0.00156645
-0.00148411
-0.00153268
-0.00202165
-0.00271635
-0.00317113
-0.00318676
0.0002139
0.00039407
0.000283334
-0.000245723
-1.24911e-05
0.000683755
0.000646779
6.6761e-06
-0.000353244
-0.000210394
-0.000126652
-0.000587767
-0.00131789
-0.0016858
-0.0016099
-0.00160438
-0.00203728
-0.0027426
-0.00327619
-0.00335192
0.000197704
0.000351506
0.000284994
-0.000210749
-0.000105684
0.000531914
0.000586969
-1.40588e-05
-0.000422916
-0.000302421
-0.000196122
-0.00063668
-0.00138761
-0.00180762
-0.00174642
-0.00167465
-0.00203112
-0.00272966
-0.00334039
-0.00350528
0.000181792
0.000308217
0.000274787
-0.000178472
-0.000180685
0.000379887
0.000506899
-4.12739e-05
-0.000491941
-0.000403309
-0.00026998
-0.000675861
-0.00144265
-0.00192602
-0.00189679
-0.00175879
-0.00201184
-0.00267636
-0.00335217
-0.00362686
0.000165451
0.00026494
0.000254298
-0.00015197
-0.000241162
0.000232176
0.000410615
-7.65369e-05
-0.000561154
-0.000513531
-0.000351094
-0.000707379
-0.00147844
-0.00203096
-0.00205659
-0.00186909
-0.0019969
-0.00259019
-0.00330598
-0.00369837
0.000148023
0.000221854
0.000225421
-0.000133154
-0.000291274
9.06714e-05
0.0003022
-0.000118842
-0.00062956
-0.000634275
-0.000444221
-0.000732051
-0.00149437
-0.00211252
-0.00221458
-0.0020108
-0.00200887
-0.00248752
-0.00320675
-0.00370469
0.000129121
0.000179001
0.000189547
-0.000122944
-0.000333414
-4.349e-05
0.000184431
-0.00016773
-0.000694347
-0.00076255
-0.00055702
-0.000755158
-0.00148636
-0.00216824
-0.00235725
-0.0021741
-0.00206688
-0.00239547
-0.00306637
-0.00363906
0.000108412
0.000136145
0.000147615
-0.000121436
-0.000369494
-0.000170335
5.92349e-05
-0.000223456
-0.00075267
-0.000892587
-0.000692566
-0.000791569
-0.00145542
-0.00219086
-0.00247806
-0.00234398
-0.00217278
-0.00234191
-0.00290781
-0.00350967
8.5558e-05
9.3152e-05
0.000100286
-0.000128586
-0.000400811
-0.000289337
-7.23235e-05
-0.000286919
-0.000802746
-0.00101821
-0.000847279
-0.00085461
-0.001414
-0.00217217
-0.00256975
-0.00250692
-0.0023101
-0.00234269
-0.00275843
-0.0033305
6.02134e-05
4.98465e-05
4.82856e-05
-0.000144571
-0.000428671
-0.000399281
-0.000208791
-0.000360043
-0.000845374
-0.00113089
-0.00101486
-0.000949707
-0.00138231
-0.00211859
-0.00261731
-0.00265257
-0.00246108
-0.00239209
-0.00264401
-0.003127
3.20644e-05
6.08339e-06
-7.63448e-06
-0.000169583
-0.000454607
-0.000499309
-0.000347634
-0.00044474
-0.000884705
-0.00122398
-0.00118591
-0.00107885
-0.00137513
-0.002044
-0.00261291
-0.00276382
-0.00260908
-0.00247235
-0.00257783
-0.00293042
7.84048e-07
-3.815e-05
-6.67979e-05
-0.000203704
-0.000480156
-0.000588475
-0.000485876
-0.000541896
-0.000925603
-0.00129715
-0.00134515
-0.00123516
-0.00140498
-0.00196625
-0.0025623
-0.00282392
-0.00273822
-0.00256736
-0.00255466
-0.00276654
-3.39201e-05
-8.29104e-05
-0.000128288
-0.000246755
-0.000507206
-0.000666364
-0.000620155
-0.000650941
-0.000972971
-0.00135513
-0.00148165
-0.00140402
-0.0014783
-0.00190582
-0.00247614
-0.00282467
-0.00282985
-0.00266085
-0.00256061
-0.00264448
-7.22337e-05
-0.000128305
-0.000190895
-0.000298078
-0.000537775
-0.000733762
-0.000746877
-0.000769633
-0.00103102
-0.00140298
-0.00159363
-0.0015679
-0.00158562
-0.00188143
-0.0023753
-0.00276871
-0.0028674
-0.00273533
-0.00258219
-0.00255874
-0.000114178
-0.000174546
-0.000253276
-0.000356407
-0.000573758
-0.000792504
-0.000862627
-0.000893849
-0.00110254
-0.0014463
-0.00168272
-0.00171593
-0.00171215
-0.00189811
-0.00228749
-0.00267049
-0.00284098
-0.00277031
-0.00260127
-0.0024981
-0.00015954
-0.00022188
-0.000314301
-0.000419968
-0.000616607
-0.000845046
-0.000965229
-0.00101843
-0.00118772
-0.00149196
-0.00175208
-0.0018429
-0.00184453
-0.00194681
-0.00222924
-0.00255779
-0.00275732
-0.00274855
-0.00259625
-0.00244782
-0.000207799
-0.000270565
-0.000373273
-0.000486469
-0.000666766
-0.000894251
-0.00105413
-0.00113805
-0.00128336
-0.00154576
-0.00180777
-0.0019447
-0.00197167
-0.00201771
-0.00220037
-0.00245496
-0.00263727
-0.00266664
-0.00254833
-0.0023901
-0.000258142
-0.000320683
-0.000430051
-0.00055326
-0.000723178
-0.000943198
-0.00113058
-0.00124802
-0.00138421
-0.00160926
-0.00185713
-0.00202069
-0.00208183
-0.00210099
-0.00219412
-0.0023689
-0.00250788
-0.00254112
-0.00245427
-0.00231269
-0.00030949
-0.000371973
-0.00048484
-0.00061797
-0.000783632
-0.000993989
-0.00119707
-0.0013451
-0.00148441
-0.00168047
-0.00190629
-0.00207642
-0.00216372
-0.00218204
-0.00220521
-0.00229713
-0.00238391
-0.00239675
-0.00232927
-0.00222043
-0.000360641
-0.000423688
-0.000537979
-0.000678973
-0.00084529
-0.00104722
-0.00125627
-0.00142804
-0.00157826
-0.00175489
-0.00195794
-0.00211996
-0.00221535
-0.00224248
-0.00222436
-0.00223851
-0.00227178
-0.00226104
-0.002204
-0.0021312
-0.000410436
-0.000474592
-0.000589349
-0.0007357
-0.000905188
-0.00110164
-0.00131078
-0.00149794
-0.0016609
-0.00182677
-0.00200994
-0.0021603
-0.0022472
-0.0022759
-0.00224035
-0.0021931
-0.00217401
-0.00214436
-0.00209674
-0.00205664
-0.0004576
-0.000523249
-0.000638244
-0.000787834
-0.000960985
-0.00115489
-0.00136208
-0.00155666
-0.00173025
-0.00189105
-0.0020562
-0.00219667
-0.00227394
-0.00229467
-0.00225043
-0.00216222
-0.00209302
-0.00204238
-0.00200103
-0.0019885
-0.000500805
-0.000567948
-0.000683498
-0.000834817
-0.001011
-0.00120434
-0.00140973
-0.00160696
-0.0017866
-0.00194453
-0.00209212
-0.00222017
-0.00229405
-0.00231226
-0.00227646
-0.00217745
-0.00206461
-0.00197292
-0.00190941
-0.00189621
-0.000538574
-0.000607041
-0.000723337
-0.000875541
-0.00105375
-0.00124739
-0.00145129
-0.00164887
-0.00183179
-0.00199031
-0.00212424
-0.00222947
-0.00228268
-0.00227968
-0.00224215
-0.0021661
-0.00207242
-0.00199903
-0.00196067
-0.00197236
-0.000569584
-0.000639005
-0.000755873
-0.00090846
-0.00108725
-0.0012808
-0.00148334
-0.00167967
-0.00186219
-0.00202186
-0.00215334
-0.00225322
-0.00231019
-0.00230554
-0.0022517
-0.00216019
-0.00204108
-0.00193096
-0.00186324
-0.00186581
-0.000593725
-0.000666353
-0.000785875
-0.000940598
-0.00112098
-0.00131552
-0.00151816
-0.00171426
-0.00189592
-0.00205436
-0.00218361
-0.0022752
-0.00232247
-0.0023123
-0.00225181
-0.00215907
-0.00204814
-0.00194631
-0.00188533
-0.00189385
0.0159989
0.00935876
0.000790627
-0.00543033
-0.00740363
-0.0068672
-0.00595789
-0.00539866
-0.00523318
-0.005324
-0.00546401
-0.00547079
-0.00537886
-0.0053297
-0.00533805
-0.00539812
-0.00551823
-0.00561051
-0.00562523
-0.005642
-0.00569996
-0.00575216
-0.00578799
-0.00582763
-0.00586867
-0.00591781
-0.00598978
-0.00607683
-0.00616583
-0.0062639
-0.00637603
-0.00649901
-0.00663028
-0.00675815
-0.00688632
-0.00701952
-0.00714951
-0.00727823
-0.00739821
-0.00750756
-0.00762852
-0.00774669
-0.0078417
-0.00794579
-0.00808839
-0.00825955
-0.00844638
-0.00863062
-0.00877481
-0.00889134
-0.00903028
-0.00919025
-0.00933886
-0.00947348
-0.00959957
-0.00973724
-0.00988893
-0.0100124
-0.0101141
-0.0102402
-0.0103798
-0.0104928
-0.0106021
-0.0107245
-0.0108455
-0.0109565
-0.0110713
-0.0111926
-0.0113099
-0.0114275
-0.0115447
-0.011666
-0.0117856
-0.0119078
-0.0120314
-0.012156
-0.0122878
-0.01242
-0.0125556
-0.0126874
-0.0128213
-0.0129587
-0.0130966
-0.0132434
-0.0133885
-0.0135424
-0.0136938
-0.0138508
-0.0140074
-0.0141673
-0.0143295
-0.0144928
-0.0146613
-0.0148279
-0.0150014
-0.0151686
-0.0153479
-0.0155125
-0.0156589
-0.0158322
0.0151656
0.00920691
0.000876453
-0.00528703
-0.00731434
-0.00682361
-0.0059309
-0.00538006
-0.00521982
-0.00531398
-0.00545633
-0.00546456
-0.00537335
-0.00532472
-0.00533347
-0.00539388
-0.00551453
-0.00560736
-0.00562236
-0.0056393
-0.00569752
-0.00574993
-0.00578589
-0.00582566
-0.00586681
-0.00591602
-0.00598808
-0.00607522
-0.0061643
-0.00626243
-0.00637463
-0.00649768
-0.00662902
-0.00675694
-0.00688516
-0.00701842
-0.00714847
-0.00727725
-0.00739729
-0.00750668
-0.00762769
-0.00774595
-0.007841
-0.00794511
-0.00808774
-0.00825895
-0.00844582
-0.00863012
-0.00877437
-0.00889091
-0.00902987
-0.00918987
-0.00933852
-0.00947317
-0.00959929
-0.00973697
-0.00988869
-0.0100122
-0.0101139
-0.01024
-0.0103796
-0.0104927
-0.010602
-0.0107244
-0.0108454
-0.0109564
-0.0110712
-0.0111925
-0.0113099
-0.0114274
-0.0115446
-0.0116659
-0.0117856
-0.0119078
-0.0120314
-0.012156
-0.0122878
-0.01242
-0.0125556
-0.0126874
-0.0128213
-0.0129587
-0.0130966
-0.0132434
-0.0133885
-0.0135424
-0.0136938
-0.0138508
-0.0140074
-0.0141673
-0.0143295
-0.0144927
-0.0146613
-0.0148279
-0.0150014
-0.0151686
-0.0153479
-0.0155125
-0.0156589
-0.0158321
0.0144079
0.00907741
0.0010637
-0.0050155
-0.00716067
-0.00676701
-0.00590323
-0.00535864
-0.00520244
-0.00530017
-0.00544541
-0.005456
-0.0053667
-0.00531952
-0.00532905
-0.00538975
-0.00551077
-0.0056041
-0.00561945
-0.00563671
-0.00569525
-0.00574786
-0.00578396
-0.00582389
-0.00586516
-0.00591444
-0.00598657
-0.0060738
-0.00616295
-0.00626114
-0.0063734
-0.00649651
-0.00662792
-0.0067559
-0.00688415
-0.00701747
-0.00714756
-0.00727639
-0.00739649
-0.0075059
-0.00762696
-0.00774528
-0.00784036
-0.00794448
-0.00808715
-0.00825841
-0.00844534
-0.0086297
-0.00877398
-0.00889052
-0.00902949
-0.00918954
-0.00933822
-0.00947289
-0.00959903
-0.00973672
-0.00988848
-0.0100121
-0.0101137
-0.0102398
-0.0103795
-0.0104926
-0.0106018
-0.0107243
-0.0108453
-0.0109563
-0.0110711
-0.0111925
-0.0113098
-0.0114274
-0.0115446
-0.0116659
-0.0117855
-0.0119078
-0.0120314
-0.012156
-0.0122878
-0.01242
-0.0125556
-0.0126874
-0.0128213
-0.0129587
-0.0130966
-0.0132434
-0.0133885
-0.0135424
-0.0136938
-0.0138508
-0.0140074
-0.0141673
-0.0143295
-0.0144927
-0.0146613
-0.0148279
-0.0150014
-0.0151686
-0.0153479
-0.0155125
-0.0156589
-0.0158321
0.0136905
0.00894391
0.0012945
-0.00467732
-0.0069533
-0.00668862
-0.00586355
-0.00532641
-0.00517604
-0.00527906
-0.005428
-0.00544207
-0.00535652
-0.00531249
-0.00532368
-0.00538468
-0.00550563
-0.00559929
-0.0056154
-0.00563346
-0.00569253
-0.00574539
-0.00578169
-0.00582189
-0.00586337
-0.00591277
-0.00598499
-0.00607231
-0.00616153
-0.00625978
-0.00637212
-0.00649529
-0.00662679
-0.00675484
-0.00688313
-0.00701648
-0.00714661
-0.00727549
-0.00739566
-0.00750509
-0.00762617
-0.00774454
-0.00783963
-0.00794376
-0.00808649
-0.00825783
-0.00844481
-0.00862924
-0.00877355
-0.00889009
-0.00902908
-0.00918918
-0.00933788
-0.00947258
-0.00959874
-0.00973645
-0.00988825
-0.0100119
-0.0101135
-0.0102396
-0.0103793
-0.0104924
-0.0106017
-0.0107242
-0.0108452
-0.0109562
-0.011071
-0.0111924
-0.0113098
-0.0114273
-0.0115445
-0.0116658
-0.0117855
-0.0119077
-0.0120313
-0.0121559
-0.0122878
-0.01242
-0.0125555
-0.0126874
-0.0128213
-0.0129587
-0.0130966
-0.0132434
-0.0133885
-0.0135424
-0.0136938
-0.0138508
-0.0140074
-0.0141673
-0.0143295
-0.0144927
-0.0146613
-0.0148279
-0.0150014
-0.0151686
-0.0153479
-0.0155125
-0.0156589
-0.0158321
0.0129754
0.0087791
0.00152751
-0.00432176
-0.0067253
-0.00659972
-0.00581769
-0.00528649
-0.00514144
-0.00525017
-0.00540297
-0.00542134
-0.00534135
-0.00530244
-0.00531668
-0.00537824
-0.00549846
-0.00559204
-0.00560933
-0.00562885
-0.00568879
-0.00574208
-0.00577876
-0.00581942
-0.00586131
-0.00591092
-0.00598322
-0.0060706
-0.00615992
-0.00625827
-0.00637066
-0.00649388
-0.00662548
-0.00675364
-0.00688199
-0.00701537
-0.00714552
-0.00727447
-0.00739473
-0.00750419
-0.00762526
-0.0077436
-0.00783868
-0.00794286
-0.00808569
-0.00825712
-0.00844415
-0.00862863
-0.00877299
-0.00888955
-0.00902859
-0.00918871
-0.00933743
-0.00947216
-0.00959837
-0.00973609
-0.00988794
-0.0100116
-0.0101132
-0.0102394
-0.0103791
-0.0104922
-0.0106015
-0.010724
-0.0108451
-0.0109561
-0.0110709
-0.0111923
-0.0113097
-0.0114272
-0.0115445
-0.0116658
-0.0117854
-0.0119077
-0.0120313
-0.0121559
-0.0122877
-0.0124199
-0.0125555
-0.0126874
-0.0128213
-0.0129587
-0.0130966
-0.0132434
-0.0133885
-0.0135424
-0.0136938
-0.0138508
-0.0140074
-0.0141673
-0.0143295
-0.0144927
-0.0146613
-0.0148279
-0.0150014
-0.0151686
-0.0153479
-0.0155126
-0.015659
-0.0158322
0.012259
0.00857693
0.0017505
-0.00396217
-0.00648609
-0.00650545
-0.00577092
-0.00524401
-0.00510245
-0.00521636
-0.00537266
-0.0053955
-0.00532206
-0.00528957
-0.00530798
-0.00537039
-0.00548925
-0.00558228
-0.00560108
-0.00562257
-0.00568367
-0.00573758
-0.00577494
-0.00581636
-0.00585892
-0.0059089
-0.00598126
-0.00606866
-0.00615811
-0.0062566
-0.00636903
-0.00649224
-0.00662391
-0.0067522
-0.00688064
-0.00701405
-0.00714421
-0.00727328
-0.00739372
-0.00750325
-0.00762422
-0.00774243
-0.00783744
-0.00794169
-0.00808469
-0.00825623
-0.00844328
-0.00862776
-0.00877219
-0.00888886
-0.00902795
-0.00918807
-0.00933678
-0.00947159
-0.00959787
-0.00973562
-0.00988748
-0.0100111
-0.0101128
-0.010239
-0.0103788
-0.0104919
-0.0106013
-0.0107238
-0.0108449
-0.0109559
-0.0110707
-0.0111921
-0.0113095
-0.0114271
-0.0115443
-0.0116657
-0.0117854
-0.0119076
-0.0120312
-0.0121558
-0.0122877
-0.0124199
-0.0125555
-0.0126873
-0.0128212
-0.0129587
-0.0130966
-0.0132433
-0.0133885
-0.0135424
-0.0136938
-0.0138508
-0.0140074
-0.0141673
-0.0143295
-0.0144927
-0.0146613
-0.0148279
-0.0150014
-0.0151686
-0.0153479
-0.0155126
-0.015659
-0.0158322
0.0115472
0.00833949
0.00196042
-0.00360034
-0.00623556
-0.00640525
-0.00572408
-0.00520075
-0.00506073
-0.00517937
-0.00533923
-0.0053667
-0.00530026
-0.00527478
-0.00529795
-0.00536141
-0.0054785
-0.00557064
-0.0055911
-0.00561481
-0.00567711
-0.00573177
-0.00577005
-0.00581259
-0.00585618
-0.00590674
-0.00597916
-0.00606654
-0.00615615
-0.00625482
-0.00636726
-0.0064904
-0.00662208
-0.00675047
-0.00687898
-0.00701237
-0.00714252
-0.00727178
-0.00739258
-0.0075023
-0.00762313
-0.00774106
-0.00783593
-0.00794025
-0.00808344
-0.0082551
-0.0084421
-0.00862651
-0.00877106
-0.00888794
-0.00902712
-0.00918716
-0.00933584
-0.00947077
-0.00959719
-0.00973495
-0.0098868
-0.0100105
-0.0101122
-0.0102385
-0.0103784
-0.0104915
-0.0106009
-0.0107234
-0.0108446
-0.0109556
-0.0110705
-0.0111919
-0.0113093
-0.0114269
-0.0115442
-0.0116656
-0.0117852
-0.0119075
-0.0120311
-0.0121557
-0.0122876
-0.0124198
-0.0125554
-0.0126873
-0.0128212
-0.0129586
-0.0130965
-0.0132433
-0.0133884
-0.0135424
-0.0136938
-0.0138508
-0.0140074
-0.0141673
-0.0143295
-0.0144927
-0.0146613
-0.0148279
-0.0150014
-0.0151686
-0.0153479
-0.0155126
-0.0156591
-0.0158323
0.0108477
0.00807014
0.00215455
-0.00323728
-0.00597274
-0.00629747
-0.0056769
-0.00515736
-0.00501688
-0.0051398
-0.00530359
-0.005336
-0.00527683
-0.00525867
-0.00528691
-0.00535157
-0.00546677
-0.00555788
-0.00558008
-0.00560605
-0.00566946
-0.0057248
-0.00576413
-0.00580809
-0.00585306
-0.00590442
-0.00597694
-0.00606427
-0.00615408
-0.00625298
-0.00636543
-0.00648844
-0.00662008
-0.00674852
-0.00687701
-0.00701024
-0.0071403
-0.00726978
-0.00739112
-0.00750125
-0.007622
-0.0077396
-0.00783428
-0.00793864
-0.008082
-0.00825374
-0.00844055
-0.00862477
-0.00876948
-0.00888673
-0.00902602
-0.0091859
-0.00933449
-0.00946962
-0.00959625
-0.00973403
-0.00988582
-0.0100096
-0.0101115
-0.0102378
-0.0103777
-0.0104909
-0.0106003
-0.010723
-0.0108441
-0.0109552
-0.0110701
-0.0111916
-0.011309
-0.0114267
-0.011544
-0.0116654
-0.0117851
-0.0119073
-0.012031
-0.0121556
-0.0122875
-0.0124197
-0.0125553
-0.0126872
-0.0128211
-0.0129586
-0.0130965
-0.0132433
-0.0133884
-0.0135423
-0.0136937
-0.0138507
-0.0140074
-0.0141673
-0.0143295
-0.0144927
-0.0146613
-0.0148278
-0.0150014
-0.0151686
-0.0153479
-0.0155127
-0.0156592
-0.0158324
0.0101674
0.00777232
0.00232905
-0.00287528
-0.00569745
-0.00618069
-0.00562897
-0.00511454
-0.00497153
-0.00509795
-0.00526603
-0.00530377
-0.0052521
-0.00524147
-0.005275
-0.00534105
-0.00545439
-0.00554443
-0.00556841
-0.00559668
-0.0056611
-0.005717
-0.00575742
-0.00580295
-0.00584955
-0.0059019
-0.00597461
-0.00606191
-0.00615196
-0.00625113
-0.00636359
-0.00648646
-0.00661803
-0.00674648
-0.00687484
-0.00700773
-0.00713752
-0.00726717
-0.00738918
-0.00749991
-0.00762071
-0.00773806
-0.00783264
-0.00793709
-0.00808056
-0.00825226
-0.00843866
-0.00862248
-0.00876738
-0.00888518
-0.00902464
-0.00918423
-0.00933267
-0.00946804
-0.009595
-0.00973279
-0.00988446
-0.0100083
-0.0101104
-0.0102369
-0.0103767
-0.01049
-0.0105996
-0.0107223
-0.0108435
-0.0109546
-0.0110696
-0.0111911
-0.0113086
-0.0114263
-0.0115436
-0.0116651
-0.0117848
-0.0119071
-0.0120308
-0.0121554
-0.0122873
-0.0124196
-0.0125552
-0.0126871
-0.012821
-0.0129585
-0.0130964
-0.0132432
-0.0133883
-0.0135423
-0.0136937
-0.0138507
-0.0140074
-0.0141673
-0.0143295
-0.0144927
-0.0146613
-0.0148278
-0.0150014
-0.0151686
-0.0153479
-0.0155127