/*--------------------------------*- C++ -*----------------------------------*\
| =========                 |                                                 |
| \\      /  F ield         | OpenFOAM: The Open Source CFD Toolbox           |
|  \\    /   O peration     | Version:  2106                                  |
|   \\  /    A nd           | Website:  www.openfoam.com                      |
|    \\/     M anipulation  |                                                 |
\*---------------------------------------------------------------------------*/
FoamFile
{
    version     2.0;
    format      ascii;
    arch        "LSB;label=32;scalar=64";
    class       surfaceScalarField;
    location    "0.585";
    object      phi;
}
// * * * * * * * * * * * * * * * * * * * * * * * * * * * * * * * * * * * * * //

dimensions      [0 3 -1 0 0 0 0];

oriented        oriented;

internalField   nonuniform List<scalar> 
19000
(
1.19043e-06
1.5554e-07
1.15726e-06
3.54278e-07
1.14087e-06
-4.86925e-07
1.17494e-06
-1.10834e-07
1.18975e-06
5.72332e-07
1.12702e-06
-3.30724e-07
1.1602e-06
2.39436e-07
1.13048e-06
-1.92557e-07
1.14241e-06
-3.43422e-07
1.16524e-06
1.40066e-07
1.16297e-06
-5.70888e-08
1.15005e-06
-3.52832e-08
1.14934e-06
-1.57543e-07
1.14742e-06
1.43629e-07
1.15376e-06
5.5007e-08
1.15045e-06
1.925e-07
1.15752e-06
-3.73173e-10
1.15342e-06
3.99542e-08
1.15608e-06
-3.44775e-08
1.11704e-08
1.13256e-06
1.24444e-06
1.35365e-07
1.21573e-06
3.82984e-07
1.19952e-06
-4.70718e-07
1.2324e-06
-1.43712e-07
1.24331e-06
5.6142e-07
1.18333e-06
-2.70737e-07
1.21062e-06
2.12138e-07
1.18781e-06
-1.69739e-07
1.19675e-06
-3.5237e-07
1.22508e-06
1.11735e-07
1.21961e-06
-5.16116e-08
1.21225e-06
-2.79214e-08
1.20464e-06
-1.4994e-07
1.2121e-06
1.36176e-07
1.20616e-06
6.0947e-08
1.21946e-06
1.79197e-07
1.20777e-06
1.13156e-08
1.22478e-06
2.29434e-08
1.20212e-06
-1.18216e-08
-1.55332e-09
1.21485e-06
1.29878e-06
1.19365e-07
1.27844e-06
4.03324e-07
1.26105e-06
-4.53329e-07
1.2919e-06
-1.74561e-07
1.29896e-06
5.54365e-07
1.24711e-06
-2.18893e-07
1.26422e-06
1.95028e-07
1.25343e-06
-1.58944e-07
1.25332e-06
-3.52262e-07
1.28542e-06
7.96365e-08
1.27747e-06
-4.36585e-08
1.27692e-06
-2.73794e-08
1.26125e-06
-1.34266e-07
1.27263e-06
1.248e-07
1.26264e-06
7.09331e-08
1.27729e-06
1.6455e-07
1.26623e-06
2.23693e-08
1.27778e-06
1.13993e-08
1.26432e-06
1.63521e-09
1.38158e-09
1.26139e-06
1.35467e-06
1.08798e-07
1.3438e-06
4.14197e-07
1.32563e-06
-4.35161e-07
1.35247e-06
-2.01404e-07
1.35663e-06
5.50211e-07
1.31598e-06
-1.78248e-07
1.32312e-06
1.87888e-07
1.32288e-06
-1.58698e-07
1.31471e-06
-3.44096e-07
1.34365e-06
5.06982e-08
1.33841e-06
-3.84177e-08
1.33931e-06
-2.82779e-08
1.32241e-06
-1.17372e-07
1.32971e-06
1.17499e-07
1.32402e-06
7.66226e-08
1.33476e-06
1.53811e-07
1.32922e-06
2.79147e-08
1.33574e-06
4.8806e-09
1.32745e-06
9.92329e-09
8.13028e-09
1.3207e-06
1.41361e-06
1.0354e-07
1.41061e-06
4.17199e-07
1.39346e-06
-4.1801e-07
1.41453e-06
-2.22473e-07
1.41692e-06
5.47817e-07
1.38731e-06
-1.48635e-07
1.38796e-06
1.87234e-07
1.39288e-06
-1.6361e-07
1.38188e-06
-3.33103e-07
1.40338e-06
2.92048e-08
1.40263e-06
-3.76677e-08
1.40263e-06
-2.82837e-08
1.3881e-06
-1.02839e-07
1.39179e-06
1.1381e-07
1.38957e-06
7.88398e-08
1.3993e-06
1.44077e-07
1.39606e-06
3.11598e-08
1.40087e-06
7.36802e-11
1.39363e-06
1.71544e-08
1.5795e-08
1.38597e-06
1.47702e-06
1.02199e-07
1.47873e-06
4.15482e-07
1.46474e-06
-4.04016e-07
1.4795e-06
-2.37233e-07
1.48085e-06
5.46466e-07
1.46004e-06
-1.27822e-07
1.4583e-06
1.88971e-07
1.46372e-06
-1.69032e-07
1.45389e-06
-3.23269e-07
1.46812e-06
1.49692e-08
1.4695e-06
-3.90405e-08
1.46907e-06
-2.78554e-08
1.45742e-06
-9.11864e-08
1.46052e-06
1.10704e-07
1.45983e-06
7.95343e-08
1.46971e-06
1.342e-07
1.4671e-06
3.377e-08
1.47029e-06
-3.12509e-09
1.46366e-06
2.37904e-08
2.47249e-08
1.45473e-06
1.5456e-06
1.02816e-07
1.5491e-06
4.1198e-07
1.53931e-06
-3.94222e-07
1.54861e-06
-2.46536e-07
1.54912e-06
5.45953e-07
1.53452e-06
-1.13216e-07
1.53308e-06
1.90408e-07
1.53694e-06
-1.72892e-07
1.52917e-06
-3.15498e-07
1.53839e-06
5.7435e-09
1.53909e-06
-3.97381e-08
1.5387e-06
-2.74632e-08
1.52972e-06
-8.22091e-08
1.53409e-06
1.06333e-07
1.53425e-06
7.93733e-08
1.54392e-06
1.24537e-07
1.54135e-06
3.63391e-08
1.54253e-06
-4.30677e-09
1.53648e-06
2.98436e-08
3.48792e-08
1.52632e-06
1.61918e-06
1.03761e-07
1.62286e-06
4.08307e-07
1.61669e-06
-3.88051e-07
1.62214e-06
-2.51989e-07
1.62198e-06
5.46109e-07
1.61157e-06
-1.028e-07
1.61144e-06
1.9053e-07
1.61345e-06
-1.749e-07
1.60694e-06
-3.08981e-07
1.61315e-06
-4.76006e-10
1.61202e-06
-3.86067e-08
1.61155e-06
-2.69925e-08
1.60476e-06
-7.54159e-08
1.61082e-06
1.00273e-07
1.61168e-06
7.8508e-08
1.62068e-06
1.15546e-07
1.61797e-06
3.90427e-08
1.617e-06
-3.33863e-09
1.61155e-06
3.52992e-08
4.58815e-08
1.60055e-06
1.69713e-06
1.04209e-07
1.7007e-06
4.04737e-07
1.69652e-06
-3.83873e-07
1.6996e-06
-2.55067e-07
1.69933e-06
5.46373e-07
1.69179e-06
-9.52534e-08
1.69297e-06
1.8935e-07
1.69344e-06
-1.75377e-07
1.68717e-06
-3.02709e-07
1.69156e-06
-4.86524e-09
1.68883e-06
-3.58718e-08
1.68808e-06
-2.62489e-08
1.68273e-06
-7.00658e-08
1.69e-06
9.30039e-08
1.69143e-06
7.70831e-08
1.69946e-06
1.07515e-07
1.69673e-06
4.17685e-08
1.69377e-06
-3.824e-10
1.68893e-06
4.01439e-08
5.72017e-08
1.67761e-06
1.7789e-06
1.04035e-07
1.7828e-06
4.00835e-07
1.77887e-06
-3.79943e-07
1.78039e-06
-2.56591e-07
1.78091e-06
5.45857e-07
1.77541e-06
-8.97581e-08
1.7775e-06
1.8726e-07
1.77682e-06
-1.74691e-07
1.77013e-06
-2.96018e-07
1.77331e-06
-8.05331e-09
1.76977e-06
-3.23267e-08
1.76873e-06
-2.52121e-08
1.76409e-06
-6.54261e-08
1.77171e-06
8.53896e-08
1.77348e-06
7.53081e-08
1.78038e-06
1.00621e-07
1.77785e-06
4.42892e-08
1.7733e-06
4.17258e-09
1.76899e-06
4.44494e-08
6.8243e-08
1.75795e-06
1.86435e-06
1.03438e-07
1.86908e-06
3.96101e-07
1.86416e-06
-3.75026e-07
1.86436e-06
-2.56792e-07
1.86647e-06
5.43747e-07
1.8625e-06
-8.57813e-08
1.86509e-06
1.8467e-07
1.86355e-06
-1.73152e-07
1.85613e-06
-2.88598e-07
1.85847e-06
-1.03956e-08
1.85495e-06
-2.88057e-08
1.85371e-06
-2.39723e-08
1.84927e-06
-6.09877e-08
1.8564e-06
7.82605e-08
1.85832e-06
7.33846e-08
1.86399e-06
9.49522e-08
1.86185e-06
4.64361e-08
1.85617e-06
9.85107e-09
1.85223e-06
4.8387e-08
7.84367e-08
1.84204e-06
1.95365e-06
1.0263e-07
1.95947e-06
3.90279e-07
1.95297e-06
-3.68528e-07
1.95184e-06
-2.55661e-07
1.95599e-06
5.39602e-07
1.95315e-06
-8.29413e-08
1.95596e-06
1.81852e-07
1.95378e-06
-1.7097e-07
1.94559e-06
-2.80404e-07
1.94727e-06
-1.20812e-08
1.94441e-06
-2.59388e-08
1.94304e-06
-2.26089e-08
1.93858e-06
-5.6527e-08
1.94466e-06
7.21791e-08
1.94661e-06
7.14374e-08
1.95107e-06
9.0488e-08
1.94932e-06
4.81935e-08
1.94299e-06
1.61764e-08
1.93917e-06
5.22106e-08
8.73475e-08
1.93026e-06
2.04709e-06
1.01726e-07
2.05401e-06
3.83363e-07
2.04582e-06
-3.60339e-07
2.04338e-06
-2.53223e-07
2.04959e-06
5.33389e-07
2.0476e-06
-8.09443e-08
2.05052e-06
1.78928e-07
2.04778e-06
-1.68228e-07
2.03896e-06
-2.71587e-07
2.04006e-06
-1.31771e-08
2.0382e-06
-2.40791e-08
2.03671e-06
-2.11254e-08
2.03224e-06
-5.20517e-08
2.03703e-06
6.73867e-08
2.03896e-06
6.95124e-08
2.04235e-06
8.70975e-08
2.04083e-06
4.97086e-08
2.03429e-06
2.27225e-08
2.03035e-06
5.61475e-08
9.47735e-08
2.02292e-06
2.14496e-06
1.00764e-07
2.15283e-06
3.75493e-07
2.14312e-06
-3.50629e-07
2.13951e-06
-2.49606e-07
2.14755e-06
5.25347e-07
2.14616e-06
-7.95514e-08
2.1492e-06
1.75889e-07
2.14586e-06
-1.64887e-07
2.13669e-06
-2.62417e-07
2.13717e-06
-1.36658e-08
2.13644e-06
-2.33404e-08
2.13476e-06
-1.94545e-08
2.1304e-06
-4.76865e-08
2.13392e-06
6.38612e-08
2.13581e-06
6.76275e-08
2.13835e-06
8.4554e-08
2.13682e-06
5.12378e-08
2.13041e-06
2.91378e-08
2.12623e-06
6.03286e-08
1.00734e-07
2.12027e-06
2.24751e-06
9.97434e-08
2.25615e-06
3.6685e-07
2.24521e-06
-3.39692e-07
2.2406e-06
-2.44994e-07
2.25013e-06
5.15822e-07
2.24913e-06
-7.85491e-08
2.25237e-06
1.72646e-07
2.24833e-06
-1.60852e-07
2.23911e-06
-2.53193e-07
2.23892e-06
-1.34801e-08
2.23927e-06
-2.36831e-08
2.23731e-06
-1.75027e-08
2.23319e-06
-4.35598e-08
2.23564e-06
6.14053e-08
2.23743e-06
6.58378e-08
2.23943e-06
8.25599e-08
2.23759e-06
5.30702e-08
2.23157e-06
3.5161e-08
2.22716e-06
6.47404e-08
1.05419e-07
2.22247e-06
2.35496e-06
9.86596e-08
2.3642e-06
3.57614e-07
2.35236e-06
-3.27853e-07
2.34693e-06
-2.39565e-07
2.35759e-06
5.05155e-07
2.35677e-06
-7.77259e-08
2.36034e-06
1.69073e-07
2.35552e-06
-1.56026e-07
2.34652e-06
-2.4419e-07
2.34557e-06
-1.25354e-08
2.34688e-06
-2.49906e-08
2.34458e-06
-1.52011e-08
2.34075e-06
-3.97292e-08
2.34242e-06
5.97272e-08
2.344e-06
6.42615e-08
2.34577e-06
8.07897e-08
2.34339e-06
5.54529e-08
2.33791e-06
4.0636e-08
2.33341e-06
6.92448e-08
1.09107e-07
2.32972e-06
2.46755e-06
9.75042e-08
2.47721e-06
3.4795e-07
2.46478e-06
-3.15417e-07
2.45868e-06
-2.33469e-07
2.47021e-06
4.93626e-07
2.46935e-06
-7.68661e-08
2.47339e-06
1.65034e-07
2.46771e-06
-1.50343e-07
2.45915e-06
-2.35631e-07
2.45737e-06
-1.07602e-08
2.45949e-06
-2.71105e-08
2.45684e-06
-1.25423e-08
2.45326e-06
-3.61549e-08
2.4545e-06
5.8488e-08
2.45569e-06
6.30724e-08
2.45752e-06
7.89598e-08
2.45453e-06
5.84413e-08
2.44953e-06
4.56326e-08
2.44517e-06
7.36089e-08
1.12076e-07
2.4422e-06
2.58553e-06
9.62644e-08
2.59548e-06
3.38005e-07
2.5827e-06
-3.02638e-07
2.57605e-06
-2.26824e-07
2.58825e-06
4.81434e-07
2.58714e-06
-7.57616e-08
2.59176e-06
1.60412e-07
2.58518e-06
-1.43764e-07
2.57724e-06
-2.27687e-07
2.5746e-06
-8.12239e-09
2.57736e-06
-2.98662e-08
2.57442e-06
-9.60256e-09
2.57096e-06
-3.26935e-08
2.57212e-06
5.73249e-08
2.57272e-06
6.24753e-08
2.57478e-06
7.6899e-08
2.57135e-06
6.1872e-08
2.56656e-06
5.04204e-08
2.5626e-06
7.75645e-08
1.14528e-07
2.56015e-06
2.70917e-06
9.49228e-08
2.71927e-06
3.27904e-07
2.70634e-06
-2.89707e-07
2.69923e-06
-2.19712e-07
2.71197e-06
4.68693e-07
2.71044e-06
-7.42286e-08
2.71574e-06
1.55111e-07
2.70823e-06
-1.3626e-07
2.70102e-06
-2.20472e-07
2.69754e-06
-4.64676e-09
2.70073e-06
-3.30533e-08
2.69767e-06
-6.54369e-09
2.6941e-06
-2.91247e-08
2.69553e-06
5.58977e-08
2.69537e-06
6.26379e-08
2.69766e-06
7.4602e-08
2.6941e-06
6.54362e-08
2.68921e-06
5.53145e-08
2.68585e-06
8.09179e-08
1.16549e-07
2.68383e-06
2.83873e-06
9.34593e-08
2.8489e-06
3.17739e-07
2.83595e-06
-2.76765e-07
2.82842e-06
-2.12174e-07
2.84165e-06
4.55456e-07
2.83954e-06
-7.21197e-08
2.84559e-06
1.49062e-07
2.83715e-06
-1.27818e-07
2.83072e-06
-2.14039e-07
2.8265e-06
-4.24213e-10
2.82987e-06
-3.64285e-08
2.82694e-06
-3.60855e-09
2.82299e-06
-2.51764e-08
2.82494e-06
5.39413e-08
2.824e-06
6.35862e-08
2.82633e-06
7.22726e-08
2.823e-06
6.87589e-08
2.8178e-06
6.0521e-08
2.81505e-06
8.36613e-08
1.18085e-07
2.81352e-06
2.9745e-06
9.18544e-08
2.98466e-06
3.07584e-07
2.97181e-06
-2.63917e-07
2.96385e-06
-2.04214e-07
2.97758e-06
4.41727e-07
2.97478e-06
-6.93255e-08
2.98162e-06
1.42227e-07
2.97225e-06
-1.18446e-07
2.96658e-06
-2.08376e-07
2.96177e-06
4.38898e-09
2.96505e-06
-3.97062e-08
2.96253e-06
-1.09305e-09
2.95794e-06
-2.05858e-08
2.96056e-06
5.13224e-08
2.95897e-06
6.51736e-08
2.96096e-06
7.02794e-08
2.95823e-06
7.1495e-08
2.95271e-06
6.60386e-08
2.95038e-06
8.59918e-08
1.19006e-07
2.94946e-06
3.11677e-06
9.009e-08
3.12686e-06
2.97494e-07
3.1142e-06
-2.51253e-07
3.10578e-06
-1.95802e-07
3.12002e-06
4.27488e-07
3.11647e-06
-6.57703e-08
3.1241e-06
1.34599e-07
3.11384e-06
-1.08191e-07
3.10886e-06
-2.03398e-07
3.10368e-06
9.57134e-09
3.10653e-06
-4.25564e-08
3.10476e-06
6.81089e-10
3.09932e-06
-1.51454e-08
3.10257e-06
4.80676e-08
3.10063e-06
6.71186e-08
3.10188e-06
6.90289e-08
3.09993e-06
7.34415e-08
3.09432e-06
7.16457e-08
3.09208e-06
8.82382e-08
1.19191e-07
3.09189e-06
3.26585e-06
8.81492e-08
3.27583e-06
2.8752e-07
3.26343e-06
-2.38862e-07
3.25452e-06
-1.86887e-07
3.2693e-06
4.1271e-07
3.26493e-06
-6.14072e-08
3.27333e-06
1.26207e-07
3.26228e-06
-9.71497e-08
3.25784e-06
-1.98954e-07
3.25257e-06
1.48443e-08
3.25464e-06
-4.46299e-08
3.25389e-06
1.43439e-09
3.24751e-06
-8.76726e-09
3.2512e-06
4.43743e-08
3.24927e-06
6.90559e-08
3.24945e-06
6.88486e-08
3.24829e-06
7.45927e-08
3.24296e-06
7.69831e-08
3.24049e-06
9.07031e-08
1.18646e-07
3.24104e-06
3.42207e-06
8.60146e-08
3.43187e-06
2.77714e-07
3.41985e-06
-2.26836e-07
3.41037e-06
-1.77407e-07
3.42571e-06
3.97365e-07
3.42052e-06
-5.62154e-08
3.4296e-06
1.17124e-07
3.41793e-06
-8.54798e-08
3.41381e-06
-1.94826e-07
3.40876e-06
1.98874e-08
3.40972e-06
-4.55884e-08
3.41017e-06
9.80796e-10
3.40292e-06
-1.51451e-09
3.40671e-06
4.05862e-08
3.40515e-06
7.0619e-08
3.40412e-06
6.98725e-08
3.40355e-06
7.51656e-08
3.39889e-06
8.16401e-08
3.39604e-06
9.35518e-08
1.17564e-07
3.39713e-06
3.58576e-06
8.36676e-08
3.59534e-06
2.68134e-07
3.58378e-06
-2.15277e-07
3.57367e-06
-1.67294e-07
3.5896e-06
3.81432e-07
3.58358e-06
-5.01976e-08
3.59324e-06
1.07463e-07
3.58116e-06
-7.34007e-08
3.57708e-06
-1.90741e-07
3.5726e-06
2.43603e-08
3.57217e-06
-4.51514e-08
3.57386e-06
-7.12499e-10
3.56597e-06
6.37217e-09
3.56939e-06
3.7168e-08
3.56853e-06
7.14839e-08
3.56636e-06
7.20419e-08
3.56601e-06
7.55129e-08
3.56237e-06
8.52784e-08
3.5592e-06
9.67196e-08
1.16315e-07
3.56045e-06
3.75729e-06
8.10879e-08
3.76657e-06
2.58849e-07
3.75559e-06
-2.04295e-07
3.74477e-06
-1.56481e-07
3.7613e-06
3.64903e-07
3.75449e-06
-4.33837e-08
3.76456e-06
9.73885e-08
3.75236e-06
-6.11955e-08
3.748e-06
-1.86381e-07
3.74442e-06
2.79417e-08
3.74242e-06
-4.31528e-08
3.7452e-06
-3.49513e-09
3.73705e-06
1.45207e-08
3.73962e-06
3.46016e-08
3.73965e-06
7.14506e-08
3.73656e-06
7.51307e-08
3.73608e-06
7.60015e-08
3.73363e-06
8.77196e-08
3.73042e-06
9.99301e-08
1.15331e-07
3.73141e-06
3.93702e-06
7.82529e-08
3.94594e-06
2.49934e-07
3.93565e-06
-1.94003e-07
3.92408e-06
-1.44912e-07
3.94118e-06
3.47803e-07
3.93364e-06
-3.58489e-08
3.94391e-06
8.71208e-08
3.93192e-06
-4.92028e-08
3.92695e-06
-1.81415e-07
3.92452e-06
3.03763e-08
3.92095e-06
-3.95826e-08
3.92448e-06
-7.02942e-09
3.91652e-06
2.24788e-08
3.91783e-06
3.32959e-08
3.91878e-06
7.05014e-08
3.91513e-06
7.8777e-08
3.91421e-06
7.69264e-08
3.91294e-06
8.89888e-08
3.9101e-06
1.0277e-07
1.14938e-07
3.91049e-06
4.12536e-06
7.51388e-08
4.13383e-06
2.4147e-07
4.12434e-06
-1.84513e-07
4.11198e-06
-1.32558e-07
4.12959e-06
3.30197e-07
4.12147e-06
-2.77269e-08
4.13164e-06
7.69502e-08
4.12024e-06
-3.78051e-08
4.11436e-06
-1.75538e-07
4.11321e-06
3.15279e-08
4.10822e-06
-3.45912e-08
4.11207e-06
-1.08774e-08
4.1047e-06
2.98425e-08
4.10451e-06
3.34884e-08
4.10625e-06
6.87627e-08
4.10245e-06
8.25732e-08
4.10092e-06
7.84646e-08
4.1006e-06
8.9309e-08
4.09855e-06
1.04816e-07
1.152e-07
4.09829e-06
4.32272e-06
7.17203e-08
4.33065e-06
2.33545e-07
4.32206e-06
-1.75929e-07
4.30893e-06
-1.19431e-07
4.32692e-06
3.12215e-07
4.31841e-06
-1.92166e-08
4.32814e-06
6.72202e-08
4.31771e-06
-2.73844e-08
4.3107e-06
-1.68523e-07
4.3108e-06
3.14242e-08
4.3047e-06
-2.84845e-08
4.30839e-06
-1.45656e-08
4.30189e-06
3.63362e-08
4.30018e-06
3.52035e-08
4.30245e-06
6.64933e-08
4.29894e-06
8.60837e-08
4.29671e-06
8.06878e-08
4.29699e-06
8.90325e-08
4.29605e-06
1.05756e-07
1.15889e-07
4.29536e-06
4.52952e-06
6.79719e-08
4.53682e-06
2.26247e-07
4.52922e-06
-1.6833e-07
4.5154e-06
-1.05609e-07
4.53355e-06
2.94066e-07
4.52492e-06
-1.05879e-08
4.53383e-06
5.83147e-08
4.52471e-06
-1.82702e-08
4.51648e-06
-1.60294e-07
4.51762e-06
3.02816e-08
4.5108e-06
-2.16617e-08
4.51393e-06
-1.76945e-08
4.50842e-06
4.18425e-08
4.50532e-06
3.83061e-08
4.50784e-06
6.39793e-08
4.50498e-06
8.89435e-08
4.50211e-06
8.35584e-08
4.50261e-06
8.85286e-08
4.50285e-06
1.05515e-07
1.16542e-07
4.5022e-06
4.74622e-06
6.38694e-08
4.75281e-06
2.19657e-07
4.74624e-06
-1.61766e-07
4.73188e-06
-9.12483e-08
4.7499e-06
2.76044e-07
4.7415e-06
-2.18096e-09
4.74918e-06
5.06278e-08
4.74159e-06
-1.06747e-08
4.73226e-06
-1.50965e-07
4.73405e-06
2.84896e-08
4.72691e-06
-1.452e-08
4.72923e-06
-2.00116e-08
4.72472e-06
4.63538e-08
4.72042e-06
4.26071e-08
4.72293e-06
6.14661e-08
4.72098e-06
9.08946e-08
4.71761e-06
8.69215e-08
4.718e-06
8.81413e-08
4.71927e-06
1.04245e-07
1.16647e-07
4.71917e-06
4.97327e-06
5.93932e-08
4.97909e-06
2.13839e-07
4.97356e-06
-1.56236e-07
4.95892e-06
-7.66042e-08
4.97642e-06
2.5854e-07
4.96863e-06
5.61437e-09
4.97475e-06
4.45088e-08
4.96871e-06
-4.63938e-09
4.95858e-06
-1.40834e-07
4.96057e-06
2.64977e-08
4.95338e-06
-7.32431e-09
4.95481e-06
-2.14464e-08
4.95122e-06
4.99472e-08
4.94593e-06
4.7891e-08
4.94823e-06
5.91667e-08
4.94738e-06
9.17462e-08
4.94373e-06
9.05668e-08
4.94377e-06
8.81092e-08
4.94574e-06
1.02277e-07
1.15819e-07
4.94656e-06
5.21118e-06
5.45297e-08
5.21618e-06
2.08834e-07
5.21163e-06
-1.5168e-07
5.19707e-06
-6.2042e-08
5.21357e-06
2.42038e-07
5.2068e-06
1.2379e-08
5.21111e-06
4.02055e-08
5.20645e-06
1.82475e-11
5.196e-06
-1.30383e-07
5.19773e-06
2.47633e-08
5.19058e-06
-1.73191e-10
5.19119e-06
-2.20526e-08
5.18845e-06
5.26894e-08
5.18236e-06
5.39726e-08
5.18424e-06
5.72892e-08
5.18464e-06
9.13492e-08
5.18097e-06
9.42314e-08
5.18049e-06
8.85942e-08
5.1828e-06
9.99653e-08
1.13939e-07
5.18468e-06
5.46044e-06
4.92751e-08
5.46462e-06
2.04655e-07
5.46091e-06
-1.47964e-07
5.4469e-06
-4.80365e-08
5.46185e-06
2.27091e-07
5.45652e-06
1.77076e-08
5.4589e-06
3.78235e-08
5.45524e-06
3.68168e-09
5.44501e-06
-1.20156e-07
5.44619e-06
2.35859e-08
5.43902e-06
6.99542e-09
5.43883e-06
-2.18583e-08
5.43697e-06
5.45481e-08
5.43032e-06
6.06167e-08
5.4315e-06
5.61112e-08
5.43318e-06
8.96679e-08
5.42985e-06
9.75641e-08
5.42875e-06
8.96895e-08
5.4311e-06
9.76199e-08
1.11151e-07
5.43389e-06
5.7216e-06
4.36378e-08
5.72497e-06
2.01277e-07
5.72189e-06
-1.44875e-07
5.709e-06
-3.5147e-08
5.72182e-06
2.14271e-07
5.71825e-06
2.1276e-08
5.71879e-06
3.72761e-08
5.71557e-06
6.91059e-09
5.70603e-06
-1.10623e-07
5.70659e-06
2.3031e-08
5.69921e-06
1.43744e-08
5.69824e-06
-2.08849e-08
5.69739e-06
5.53968e-08
5.69046e-06
6.75469e-08
5.69061e-06
5.59584e-08
5.69346e-06
8.68194e-08
5.69088e-06
1.00143e-07
5.68916e-06
9.14043e-08
5.69129e-06
9.54916e-08
1.07745e-07
5.6947e-06
5.99519e-06
3.76442e-08
5.99783e-06
1.9863e-07
5.99508e-06
-1.42121e-07
5.9839e-06
-2.39689e-08
5.99409e-06
2.04085e-07
5.99239e-06
2.29676e-08
5.99152e-06
3.81515e-08
5.98803e-06
1.03977e-08
5.97945e-06
-1.0204e-07
5.97961e-06
2.28699e-08
5.97174e-06
2.22489e-08
5.96998e-06
-1.91306e-08
5.97033e-06
5.5043e-08
5.96343e-06
7.44471e-08
5.96226e-06
5.71286e-08
5.96595e-06
8.3135e-08
5.96455e-06
1.01546e-07
5.96236e-06
9.3588e-08
5.96402e-06
9.38289e-08
1.04007e-07
5.96776e-06
6.28179e-06
3.13382e-08
6.28382e-06
1.96609e-07
6.28103e-06
-1.39336e-07
6.27214e-06
-1.50806e-08
6.27937e-06
1.9686e-07
6.2794e-06
2.29334e-08
6.27781e-06
3.9742e-08
6.27333e-06
1.48793e-08
6.26567e-06
-9.43815e-08
6.26586e-06
2.26834e-08
6.25735e-06
3.07518e-08
6.25454e-06
-1.63191e-08
6.25632e-06
5.32685e-08
6.24989e-06
8.08733e-08
6.24722e-06
5.97993e-08
6.25125e-06
7.91063e-08
6.25131e-06
1.01487e-07
6.24899e-06
9.59091e-08
6.25e-06
9.28143e-08
1.00233e-07
6.25378e-06
6.58202e-06
2.47855e-08
6.58356e-06
1.95069e-07
6.58033e-06
-1.36108e-07
6.57423e-06
-8.97434e-09
6.57849e-06
1.92597e-07
6.57974e-06
2.16814e-08
6.57827e-06
4.12124e-08
6.57224e-06
2.09168e-08
6.56518e-06
-8.73261e-08
6.56587e-06
2.1993e-08
6.55684e-06
3.97794e-08
6.55267e-06
-1.21429e-08
6.55572e-06
5.02188e-08
6.55042e-06
8.61698e-08
6.54628e-06
6.39344e-08
6.55005e-06
7.53419e-08
6.55164e-06
9.98976e-08
6.54963e-06
9.79156e-08
6.54997e-06
9.24769e-08
9.67514e-08
6.55345e-06
6.8965e-06
1.80743e-08
6.89772e-06
1.93846e-07
6.89364e-06
-1.32027e-07
6.89065e-06
-5.98597e-09
6.89234e-06
1.90914e-07
6.89385e-06
2.01643e-08
6.89338e-06
4.16866e-08
6.88566e-06
2.86327e-08
6.87851e-06
-8.01705e-08
6.88021e-06
2.02897e-08
6.87109e-06
4.88979e-08
6.8651e-06
-6.15342e-09
6.86911e-06
4.62161e-08
6.8655e-06
8.97754e-08
6.86025e-06
6.91841e-08
6.86314e-06
7.24527e-08
6.86607e-06
9.69643e-08
6.86483e-06
9.91626e-08
6.86468e-06
9.26287e-08
9.38783e-08
6.86755e-06
7.22589e-06
1.13167e-08
7.22698e-06
1.92762e-07
7.22167e-06
-1.26723e-07
7.22192e-06
-6.23335e-09
7.22181e-06
1.91028e-07
7.22243e-06
1.95384e-08
7.2236e-06
4.052e-08
7.21458e-06
3.7658e-08
7.20637e-06
-7.19661e-08
7.20941e-06
1.72544e-08
7.20089e-06
5.74158e-08
7.19289e-06
1.84693e-09
7.19713e-06
4.19697e-08
7.19562e-06
9.12884e-08
7.18981e-06
7.49917e-08
7.19141e-06
7.08529e-08
7.19528e-06
9.30994e-08
7.19509e-06
9.93552e-08
7.19478e-06
9.29303e-08
9.17539e-08
7.19691e-06
7.57089e-06
4.64806e-09
7.57208e-06
1.91579e-07
7.56521e-06
-1.19854e-07
7.56857e-06
-9.59588e-09
7.56773e-06
1.91868e-07
7.56634e-06
2.09322e-08
7.56943e-06
3.74318e-08
7.55983e-06
4.72482e-08
7.54979e-06
-6.1926e-08
7.55391e-06
1.3144e-08
7.54682e-06
6.44961e-08
7.53705e-06
1.16212e-08
7.54062e-06
3.84013e-08
7.54128e-06
9.06252e-08
7.53564e-06
8.06366e-08
7.53576e-06
7.07329e-08
7.54004e-06
8.88195e-08
7.541e-06
9.83894e-08
7.54089e-06
9.30395e-08
9.02428e-08
7.5424e-06
7.93223e-06
-1.76998e-09
7.93384e-06
1.89969e-07
7.92509e-06
-1.11108e-07
7.93122e-06
-1.57222e-08
7.93082e-06
1.9227e-07
7.9265e-06
2.52523e-08
7.93141e-06
3.25177e-08
7.92223e-06
5.64347e-08
7.90977e-06
-4.94684e-08
7.91431e-06
8.60053e-09
7.90937e-06
6.94344e-08
7.89848e-06
2.25116e-08
7.90056e-06
3.63208e-08
7.9031e-06
8.80871e-08
7.8983e-06
8.54363e-08
7.89707e-06
7.19651e-08
7.90121e-06
8.46787e-08
7.90327e-06
9.63334e-08
7.90359e-06
9.27192e-08
8.90122e-08
7.90482e-06
8.31067e-06
-7.75727e-09
8.31309e-06
1.87547e-07
8.30226e-06
-1.00275e-07
8.31054e-06
-2.40096e-08
8.31171e-06
1.91103e-07
8.304e-06
3.29652e-08
8.31006e-06
2.64579e-08
8.30238e-06
6.41155e-08
8.2875e-06
-3.4586e-08
8.29134e-06
4.75183e-09
8.289e-06
7.17781e-08
8.27791e-06
3.36043e-08
8.27808e-06
3.61522e-08
8.28183e-06
8.43322e-08
8.27839e-06
8.88741e-08
8.27619e-06
7.41695e-08
8.27973e-06
8.11408e-08
8.28267e-06
9.33941e-08
8.28352e-06
9.1869e-08
8.7706e-08
8.28482e-06
8.70702e-06
-1.31186e-08
8.71068e-06
1.83887e-07
8.69764e-06
-8.72346e-08
8.70731e-06
-3.36786e-08
8.71101e-06
1.87406e-07
8.70004e-06
4.39365e-08
8.70601e-06
2.0488e-08
8.70084e-06
6.92857e-08
8.68422e-06
-1.79703e-08
8.68599e-06
2.98584e-09
8.68632e-06
7.14472e-08
8.67594e-06
4.39807e-08
8.6742e-06
3.78898e-08
8.67841e-06
8.013e-08
8.67654e-06
9.07377e-08
8.67389e-06
7.68271e-08
8.67656e-06
7.84709e-08
8.68007e-06
8.98802e-08
8.68147e-06
9.04714e-08
8.61427e-08
8.68303e-06
9.12217e-06
-1.7668e-08
9.12745e-06
1.78609e-07
9.11226e-06
-7.20505e-08
9.12237e-06
-4.37907e-08
9.12926e-06
1.80518e-07
9.11575e-06
5.74487e-08
9.12025e-06
1.59859e-08
9.11808e-06
7.14614e-08
9.10083e-06
-7.21669e-10
9.09971e-06
4.09865e-09
9.10203e-06
6.91316e-08
9.09316e-06
5.28486e-08
9.08986e-06
4.1197e-08
9.09388e-06
7.61016e-08
9.09349e-06
9.11277e-08
9.0909e-06
7.94195e-08
9.09265e-06
7.67242e-08
9.09643e-06
8.60937e-08
9.09835e-06
8.85523e-08
8.4343e-08
9.10015e-06
9.55703e-06
-2.12371e-08
9.56422e-06
1.71414e-07
9.54716e-06
-5.49818e-08
9.55668e-06
-5.33176e-08
9.567e-06
1.70201e-07
9.55218e-06
7.22685e-08
9.55391e-06
1.42571e-08
9.55466e-06
7.07115e-08
9.53811e-06
1.58286e-08
9.53394e-06
8.26862e-09
9.53704e-06
6.60281e-08
9.53018e-06
5.97077e-08
9.52595e-06
4.54339e-08
9.5293e-06
7.27476e-08
9.53016e-06
9.02649e-08
9.52798e-06
8.16002e-08
9.52892e-06
7.57847e-08
9.53272e-06
8.22964e-08
9.53512e-06
8.61466e-08
8.24189e-08
9.53705e-06
1.00126e-05
-2.36965e-08
1.00219e-05
1.62145e-07
1.00034e-05
-3.65138e-08
1.00112e-05
-6.117e-08
1.00249e-05
1.56549e-07
1.00103e-05
8.68795e-08
1.00084e-05
1.61803e-08
1.00114e-05
6.76899e-08
9.99669e-06
3.05272e-08
9.98982e-06
1.51354e-08
9.99269e-06
6.31621e-08
9.98781e-06
6.45893e-08
9.98323e-06
5.00076e-08
9.98569e-06
7.02908e-08
9.98752e-06
8.84382e-08
9.98598e-06
8.3135e-08
9.98633e-06
7.54405e-08
9.98987e-06
7.87528e-08
9.99281e-06
8.32066e-08
8.04542e-08
9.99477e-06
1.04899e-05
-2.49776e-08
1.05012e-05
1.5085e-07
1.04821e-05
-1.73734e-08
1.04871e-05
-6.62404e-08
1.05038e-05
1.39904e-07
1.04908e-05
9.98589e-08
1.04852e-05
2.18249e-08
1.04893e-05
6.36057e-08
1.04772e-05
4.25976e-08
1.04685e-05
2.38091e-08
1.04703e-05
6.14061e-08
1.0467e-05
6.78393e-08
1.04626e-05
5.44657e-08
1.04642e-05
6.86786e-08
1.04665e-05
8.61019e-08
1.04659e-05
8.3781e-08
1.04658e-05
7.54585e-08
1.04689e-05
7.56893e-08
1.04724e-05
7.97277e-08
7.83862e-08
1.04744e-05
1.09901e-05
-2.50764e-08
1.10032e-05
1.37785e-07
1.09843e-05
1.55619e-09
1.09857e-05
-6.76645e-08
1.10046e-05
1.2095e-07
1.09945e-05
1.09942e-07
1.09856e-05
3.07512e-08
1.09894e-05
5.98041e-08
1.09804e-05
5.16148e-08
1.09709e-05
3.32989e-08
1.09712e-05
6.11687e-08
1.0969e-05
7.00297e-08
1.09649e-05
5.85592e-08
1.09658e-05
6.77504e-08
1.09683e-05
8.36383e-08
1.09685e-05
8.35119e-08
1.09685e-05
7.55165e-08
1.0971e-05
7.31571e-08
1.09747e-05
7.602e-08
7.58988e-08
1.09772e-05
1.15143e-05
-2.40554e-08
1.15288e-05
1.23376e-07
1.1511e-05
1.93534e-08
1.15083e-05
-6.50135e-08
1.15286e-05
1.00688e-07
1.15222e-05
1.16302e-07
1.15109e-05
4.20811e-08
1.15134e-05
5.72984e-08
1.15072e-05
5.77667e-08
1.14978e-05
4.27583e-08
1.14967e-05
6.22773e-08
1.14949e-05
7.17785e-08
1.14913e-05
6.21486e-08
1.14916e-05
6.74814e-08
1.14941e-05
8.11561e-08
1.1495e-05
8.26146e-08
1.14952e-05
7.52642e-08
1.14973e-05
7.10965e-08
1.15009e-05
7.24243e-08
7.29199e-08
1.15039e-05
1.20638e-05
-2.20553e-08
1.2079e-05
1.08214e-07
1.20632e-05
3.51425e-08
1.20566e-05
-5.84147e-08
1.20768e-05
8.04967e-08
1.20745e-05
1.18567e-07
1.20621e-05
5.4548e-08
1.20626e-05
5.67092e-08
1.20587e-05
6.17497e-08
1.205e-05
5.13825e-08
1.20478e-05
6.45632e-08
1.20463e-05
7.32122e-08
1.20431e-05
6.53776e-08
1.20428e-05
6.77347e-08
1.20451e-05
7.88558e-08
1.20464e-05
8.13005e-08
1.20471e-05
7.46375e-08
1.20489e-05
6.9274e-08
1.20522e-05
6.91157e-08
6.9638e-08
1.20555e-05
1.26398e-05
-1.9277e-08
1.26551e-05
9.29652e-08
1.2642e-05
4.82036e-08
1.2632e-05
-4.84148e-08
1.26507e-05
6.18103e-08
1.26524e-05
1.16843e-07
1.26402e-05
6.67947e-08
1.26386e-05
5.82964e-08
1.26361e-05
6.42411e-08
1.26287e-05
5.87595e-08
1.26256e-05
6.76572e-08
1.26243e-05
7.44799e-08
1.26215e-05
6.82497e-08
1.26208e-05
6.83605e-08
1.26227e-05
7.70321e-08
1.26244e-05
7.96084e-08
1.26252e-05
7.38053e-08
1.2627e-05
6.74959e-08
1.26301e-05
6.60006e-08
6.62849e-08
1.26334e-05
1.32436e-05
-1.59563e-08
1.32583e-05
7.82817e-08
1.32484e-05
5.80683e-08
1.32359e-05
-3.58739e-08
1.32518e-05
4.5873e-08
1.32571e-05
1.11609e-07
1.32462e-05
7.76853e-08
1.32427e-05
6.17983e-08
1.32409e-05
6.59825e-08
1.32349e-05
6.48074e-08
1.32315e-05
7.10655e-08
1.32302e-05
7.57738e-08
1.32279e-05
7.05478e-08
1.32269e-05
6.93283e-08
1.32283e-05
7.5693e-08
1.323e-05
7.78657e-08
1.32311e-05
7.26983e-08
1.32328e-05
6.5839e-08
1.32359e-05
6.29043e-08
6.29291e-08
1.32392e-05
1.38765e-05
-1.23336e-08
1.38901e-05
6.4721e-08
1.38836e-05
6.46104e-08
1.38696e-05
-2.18933e-08
1.38819e-05
3.35884e-08
1.38897e-05
1.03809e-07
1.3881e-05
8.6321e-08
1.38763e-05
6.65598e-08
1.38746e-05
6.76307e-08
1.38699e-05
6.94995e-08
1.38664e-05
7.45447e-08
1.38651e-05
7.70716e-08
1.38635e-05
7.22242e-08
1.38624e-05
7.03629e-08
1.38633e-05
7.47895e-08
1.38648e-05
7.63804e-08
1.38663e-05
7.12756e-08
1.38678e-05
6.42784e-08
1.38709e-05
5.9863e-08
5.94788e-08
1.38743e-05
1.454e-05
-8.63739e-09
1.4552e-05
5.2732e-08
1.45485e-05
6.80182e-08
1.45343e-05
-7.61866e-09
1.45425e-05
2.53566e-08
1.45518e-05
9.45256e-08
1.45459e-05
9.21976e-08
1.45406e-05
7.19155e-08
1.45388e-05
6.93959e-08
1.45352e-05
7.30723e-08
1.45319e-05
7.78742e-08
1.45306e-05
7.83278e-08
1.45295e-05
7.33684e-08
1.45289e-05
7.09957e-08
1.45294e-05
7.42805e-08
1.45305e-05
7.52198e-08
1.45319e-05
6.98797e-08
1.45336e-05
6.26323e-08
1.45363e-05
5.71094e-08
5.5817e-08
1.454e-05
1.52353e-05
-5.05479e-09
1.52454e-05
4.2624e-08
1.52447e-05
6.86809e-08
1.52312e-05
5.91883e-09
1.52355e-05
2.10804e-08
1.52451e-05
8.49288e-08
1.52421e-05
9.5227e-08
1.52368e-05
7.71655e-08
1.5235e-05
7.12366e-08
1.52323e-05
7.5771e-08
1.52293e-05
8.08684e-08
1.52279e-05
7.96672e-08
1.52273e-05
7.39512e-08
1.52273e-05
7.10716e-08
1.52279e-05
7.36368e-08
1.52287e-05
7.44323e-08
1.52298e-05
6.87619e-08
1.52315e-05
6.09941e-08
1.52339e-05
5.46673e-08
5.2181e-08
1.52375e-05
1.5964e-05
-1.71954e-09
1.59721e-05
3.45045e-08
1.59736e-05
6.71943e-08
1.59616e-05
1.79453e-08
1.59625e-05
2.01855e-08
1.59715e-05
7.59268e-08
1.59709e-05
9.58468e-08
1.59663e-05
8.17115e-08
1.59645e-05
7.30547e-08
1.59626e-05
7.7666e-08
1.596e-05
8.34308e-08
1.59586e-05
8.11032e-08
1.59585e-05
7.40762e-08
1.5959e-05
7.0574e-08
1.59602e-05
7.2366e-08
1.59609e-05
7.37266e-08
1.59617e-05
6.80393e-08
1.5963e-05
5.96137e-08
1.59653e-05
5.24445e-08
4.88898e-08
1.59686e-05
1.67276e-05
1.29838e-09
1.67338e-05
2.83052e-08
1.67368e-05
6.41743e-08
1.67266e-05
2.81053e-08
1.67251e-05
2.17574e-08
1.67328e-05
6.82162e-08
1.67339e-05
9.46887e-08
1.67305e-05
8.51551e-08
1.67289e-05
7.4663e-08
1.67279e-05
7.86922e-08
1.67258e-05
8.55309e-08
1.67243e-05
8.25835e-08
1.67243e-05
7.40516e-08
1.67254e-05
6.94681e-08
1.67274e-05
7.04007e-08
1.67287e-05
7.24362e-08
1.6729e-05
6.77157e-08
1.67299e-05
5.86566e-08
1.67318e-05
5.06177e-08
4.60099e-08
1.67347e-05
1.75277e-05
3.97514e-09
1.75322e-05
2.3776e-08
1.75361e-05
6.03298e-08
1.75279e-05
3.62604e-08
1.75248e-05
2.48475e-08
1.75308e-05
6.21787e-08
1.75333e-05
9.22745e-08
1.75309e-05
8.74944e-08
1.75296e-05
7.59401e-08
1.75295e-05
7.87923e-08
1.75282e-05
8.69245e-08
1.75266e-05
8.41836e-08
1.75265e-05
7.40562e-08
1.75281e-05
6.79491e-08
1.75306e-05
6.78855e-08
1.75328e-05
7.01872e-08
1.75333e-05
6.72895e-08
1.75335e-05
5.84064e-08
1.75348e-05
4.9347e-08
4.37177e-08
1.75371e-05
1.8366e-05
6.30638e-09
1.83692e-05
2.06304e-08
1.83733e-05
5.62279e-08
1.8367e-05
4.252e-08
1.83632e-05
2.86779e-08
1.83675e-05
5.78149e-08
1.83707e-05
8.91489e-08
1.83693e-05
8.88441e-08
1.83685e-05
7.67946e-08
1.83692e-05
7.80377e-08
1.8369e-05
8.71842e-08
1.83673e-05
8.58706e-08
1.83669e-05
7.43778e-08
1.83685e-05
6.63507e-08
1.83714e-05
6.50282e-08
1.83744e-05
6.71866e-08
1.83756e-05
6.60915e-08
1.83753e-05
5.86986e-08
1.83759e-05
4.87267e-08
4.21228e-08
1.83775e-05
1.92444e-05
8.29647e-09
1.92464e-05
1.86452e-08
1.92504e-05
5.21792e-08
1.92458e-05
4.71317e-08
1.92417e-05
3.28126e-08
1.92448e-05
5.47317e-08
1.92482e-05
8.57393e-08
1.92476e-05
8.93977e-08