/*--------------------------------*- C++ -*----------------------------------*\
| =========                 |                                                 |
| \\      /  F ield         | OpenFOAM: The Open Source CFD Toolbox           |
|  \\    /   O peration     | Version:  2106                                  |
|   \\  /    A nd           | Website:  www.openfoam.com                      |
|    \\/     M anipulation  |                                                 |
\*---------------------------------------------------------------------------*/
FoamFile
{
    version     2.0;
    format      ascii;
    arch        "LSB;label=32;scalar=64";
    class       volScalarField;
    location    "0.97";
    object      p;
}
// * * * * * * * * * * * * * * * * * * * * * * * * * * * * * * * * * * * * * //

dimensions      [0 2 -2 0 0 0 0];

internalField   nonuniform List<scalar> 
9600
(
-2.93224e-09
0.00431283
0.00323787
0.00326536
0.00331925
0.00355961
0.00291397
0.00294719
0.00388278
0.00402755
0.00411572
0.00519229
0.00679496
0.00801691
0.00879706
0.00952154
0.0117177
0.0131864
0.0158647
0.0198931
-8.89195e-07
0.00431192
0.00324549
0.00326557
0.00332034
0.00354772
0.00291522
0.00297821
0.00388561
0.00402993
0.00411871
0.00519187
0.00679587
0.00797964
0.00879365
0.00947411
0.0117302
0.0130907
0.0159072
0.0194037
-1.55895e-06
0.00431218
0.00325474
0.00326417
0.00332017
0.00353597
0.00292039
0.00300846
0.0038886
0.00402909
0.0041239
0.00518777
0.00679153
0.00793532
0.00878481
0.0094314
0.0117373
0.0130051
0.015908
0.0187908
-6.21071e-07
0.00431324
0.00326389
0.00326153
0.00332003
0.00352817
0.00292655
0.00303953
0.00389079
0.00402421
0.00413254
0.00518019
0.00678538
0.00788549
0.0087754
0.00939008
0.0117368
0.0129284
0.0158421
0.0182818
2.78503e-06
0.00431388
0.00327294
0.003258
0.00332073
0.00352258
0.00293245
0.00307105
0.0038917
0.0040173
0.00414551
0.00517099
0.00677919
0.00783137
0.00876675
0.009347
0.0117373
0.0128454
0.0157433
0.0178403
9.08171e-06
0.00431335
0.00328178
0.00325383
0.00332236
0.00351781
0.00293778
0.00310216
0.00389141
0.00401049
0.00416267
0.00516169
0.00677265
0.00777457
0.00875787
0.00930429
0.0117337
0.0127589
0.015617
0.0174263
1.83364e-05
0.00431122
0.00328999
0.00324932
0.00332514
0.00351307
0.00294239
0.00313236
0.00389046
0.0040049
0.00418338
0.00515333
0.00676575
0.00771674
0.00874789
0.00926152
0.011721
0.0126735
0.0154574
0.017031
3.0302e-05
0.00430727
0.00329734
0.00324484
0.0033292
0.00350782
0.00294647
0.00316174
0.00388949
0.00400081
0.00420709
0.00514678
0.00675868
0.00765905
0.00873598
0.00921788
0.0116976
0.0125891
0.0152622
0.016651
4.4553e-05
0.00430163
0.00330391
0.00324064
0.00333445
0.00350187
0.00295043
0.0031905
0.003889
0.00399804
0.00423336
0.00514243
0.00675134
0.00760234
0.0087213
0.00917358
0.0116621
0.0125052
0.0150317
0.0162829
6.06524e-05
0.00429467
0.00330995
0.00323671
0.00334068
0.00349522
0.00295471
0.00321882
0.00388931
0.00399626
0.00426168
0.00514022
0.0067436
0.00754713
0.00870305
0.00912945
0.0116129
0.0124215
0.0147678
0.0159231
7.82433e-05
0.00428676
0.00331575
0.00323292
0.00334774
0.00348788
0.00295965
0.00324669
0.00389055
0.00399513
0.00429149
0.0051398
0.00673525
0.00749369
0.00868026
0.00908628
0.0115484
0.0123376
0.0144737
0.0155654
9.70706e-05
0.00427815
0.00332154
0.0032291
0.0033555
0.0034798
0.0029655
0.00327406
0.00389277
0.00399437
0.00432223
0.00514072
0.00672585
0.00744211
0.00865186
0.00904467
0.0114674
0.0122526
0.0141537
0.015203
0.000116976
0.00426899
0.00332753
0.00322511
0.0033639
0.0034709
0.00297247
0.00330081
0.00389599
0.00399377
0.00435343
0.00514251
0.00671481
0.00739242
0.00861666
0.00900523
0.0113692
0.0121644
0.0138139
0.0148306
0.000137883
0.0042593
0.00333384
0.00322083
0.00337297
0.00346111
0.00298069
0.00332685
0.00390017
0.00399326
0.0043846
0.00514486
0.00670139
0.00734468
0.00857367
0.00896798
0.0112537
0.0120694
0.0134608
0.0144451
0.000159772
0.00424906
0.00334059
0.00321617
0.00338273
0.00345035
0.00299024
0.00335208
0.00390525
0.00399287
0.00441527
0.00514771
0.00668488
0.007299
0.00852215
0.00893217
0.0111221
0.0119638
0.0131008
0.0140456
0.000182669
0.00423821
0.00334789
0.00321103
0.00339325
0.00343857
0.00300116
0.00337646
0.00391117
0.00399269
0.00444493
0.0051512
0.00666462
0.00725537
0.00846173
0.00889633
0.0109765
0.0118439
0.012739
0.0136324
0.00020663
0.00422662
0.00335584
0.00320535
0.0034046
0.00342569
0.00301345
0.00340001
0.00391778
0.00399297
0.00447301
0.00515565
0.00664004
0.00721365
0.00839249
0.0088582
0.0108189
0.0117068
0.0123795
0.0132071
0.000231736
0.00421417
0.00336453
0.00319904
0.00341686
0.00341167
0.00302707
0.0034228
0.00392486
0.00399401
0.00449892
0.00516134
0.00661083
0.00717328
0.00831514
0.00881526
0.0106509
0.0115506
0.0120247
0.0127722
0.000258089
0.00420069
0.00337407
0.00319201
0.0034301
0.00339649
0.0030419
0.00344496
0.00393214
0.00399612
0.00452203
0.00516845
0.00657687
0.00713323
0.00823092
0.00876523
0.0104735
0.0113753
0.011676
0.0123301
0.000285805
0.00418601
0.00338453
0.00318415
0.00344437
0.00338014
0.00305782
0.00346673
0.0039393
0.00399964
0.00454183
0.00517695
0.00653847
0.00709213
0.00814096
0.00870618
0.0102873
0.0111819
0.0113342
0.0118835
0.000315017
0.00416991
0.00339602
0.00317549
0.00345968
0.0033627
0.00307464
0.00348844
0.00394581
0.00400495
0.004558
0.00518643
0.00649631
0.00704855
0.008046
0.00863677
0.0100927
0.0109713
0.0109997
0.0114355
0.00034587
0.00415215
0.00340862
0.00316594
0.00347605
0.00334429
0.00309205
0.0035105
0.0039511
0.0040123
0.00457054
0.00519619
0.00645116
0.00700091
0.00794613
0.00855689
0.00988958
0.0107439
0.0106734
0.01099
0.000378524
0.00413249
0.00342242
0.00315544
0.00349344
0.00332514
0.00310959
0.00353336
0.00395469
0.00402174
0.00457962
0.00520519
0.00640395
0.00694785
0.00784072
0.00846733
0.00967841
0.0104993
0.0103558
0.0105512
0.00041315
0.00411066
0.00343749
0.003144
0.00351175
0.00330554
0.00312672
0.00355759
0.00395628
0.00403309
0.00458571
0.00521195
0.0063554
0.00688877
0.00772893
0.00836834
0.00946017
0.0102374
0.0100458
0.0101237
0.000449929
0.00408641
0.00345384
0.00313168
0.00353083
0.00328589
0.00314281
0.0035837
0.00395568
0.00404578
0.0045896
0.00521511
0.00630589
0.00682369
0.00760961
0.00825946
0.0092368
0.00995913
0.00974094
0.00971103
0.000489048
0.00405945
0.00347148
0.00311856
0.00355053
0.00326669
0.00315716
0.0036121
0.00395279
0.00405911
0.00459217
0.00521339
0.00625547
0.0067528
0.00748141
0.00814001
0.00901082
0.00966654
0.00943761
0.00931515
0.000530701
0.00402955
0.00349032
0.00310479
0.00357055
0.00324858
0.00316913
0.00364299
0.00394778
0.00407241
0.00459427
0.00520548
0.00620349
0.00667672
0.00734295
0.00800878
0.00878503
0.0093627
0.00913238
0.00893657
0.000575083
0.00399648
0.00351028
0.00309055
0.00359044
0.00323219
0.00317821
0.00367642
0.00394115
0.00408452
0.00459676
0.00519057
0.00614854
0.00659653
0.0071935
0.00786406
0.00856184
0.00905149
0.00882204
0.00857448
0.000622385
0.00396007
0.00353119
0.00307612
0.00360979
0.00321817
0.00318391
0.00371241
0.00393342
0.00409391
0.00460047
0.00516837
0.00608846
0.00651357
0.00703398
0.00770401
0.00834218
0.00873772
0.00850419
0.00822624
0.000672798
0.00392018
0.00355276
0.00306178
0.00362816
0.00320722
0.0031857
0.00375068
0.00392557
0.00409917
0.00460568
0.00513884
0.00602082
0.00642853
0.00686635
0.00752689
0.00812523
0.00842727
0.00817842
0.00788684
0.00072649
0.00387677
0.00357466
0.00304786
0.00364513
0.00319999
0.00318317
0.00379071
0.00391882
0.00409878
0.00461228
0.00510255
0.00594302
0.00634125
0.00669374
0.00733196
0.00790835
0.00812555
0.00784721
0.00754984
0.000783583
0.00382989
0.00359658
0.0030347
0.00366026
0.00319704
0.00317611
0.00383181
0.00391419
0.00409091
0.00461984
0.00506083
0.00585219
0.00625081
0.00652084
0.00712018
0.00768691
0.00783555
0.0075162
0.00720991
0.000844195
0.00377967
0.0036177
0.00302261
0.00367304
0.00319901
0.00316455
0.00387278
0.00391313
0.0040742
0.00462683
0.00501625
0.00574621
0.00615459
0.00635244
0.00689445
0.00745568
0.0075566
0.00719243
0.00686668
0.000908412
0.00372627
0.00363783
0.00301188
0.00368289
0.00320647
0.00314871
0.00391222
0.00391718
0.00404777
0.00463033
0.00497218
0.00562525
0.00604857
0.0061916
0.00665987
0.00721083
0.00728475
0.00688103
0.00652547
0.000976269
0.00366996
0.00365651
0.00300279
0.00368929
0.0032197
0.00312897
0.00394864
0.00392791
0.00401124
0.00462622
0.00493162
0.00549169
0.00592873
0.00603859
0.00642235
0.00695111
0.00701435
0.00658303
0.00619369
0.00104778
0.00361106
0.00367334
0.00299559
0.00369154
0.00323912
0.00310591
0.00398002
0.00394689
0.00396486
0.00461028
0.00489681
0.00535063
0.00579145
0.00589093
0.00618782
0.0066782
0.00674034
0.00629652
0.00587723
0.00112294
0.00354993
0.00368805
0.0029905
0.00368863
0.00326526
0.00308066
0.00400336
0.00397476
0.0039101
0.00458301
0.00486779
0.00520849
0.00563474
0.0057439
0.00596124
0.00639613
0.00645916
0.00601744
0.00557841
0.00120175
0.00348696
0.00370021
0.00298796
0.00367944
0.00329799
0.00305481
0.00401547
0.00401128
0.00385067
0.00452968
0.00484193
0.00507216
0.00545978
0.0055912
0.00574462
0.0061104
0.00616985
0.00574097
0.00529556
0.00128418
0.0034226
0.00370937
0.00298861
0.00366296
0.00333663
0.00303034
0.00401349
0.00405505
0.0037922
0.00445235
0.00481399
0.00494708
0.00527004
0.00542643
0.00553717
0.00582687
0.00587373
0.00546317
0.00502387
0.00137008
0.00335732
0.00371505
0.00299327
0.00363835
0.00337956
0.00301001
0.00399534
0.00410276
0.00374046
0.00435217
0.00477634
0.00483538
0.00507096
0.00524516
0.00533643
0.00555076
0.00557313
0.00518173
0.00475773
0.00145927
0.00329173
0.00371651
0.00300312
0.003605
0.00342381
0.0029972
0.00396065
0.00414931
0.00370006
0.0042313
0.00472131
0.00473577
0.00486982
0.00504581
0.00513787
0.0052863
0.00527212
0.00489584
0.00449264
0.00155139
0.00322676
0.0037129
0.00301916
0.00356287
0.00346525
0.00299491
0.00391076
0.00418809
0.00367369
0.0040974
0.00464392
0.00464485
0.00467366
0.00482974
0.00493508
0.00503512
0.00497653
0.00460615
0.00422561
0.00164593
0.00316356
0.00370318
0.00304203
0.00351297
0.00349903
0.00300457
0.00384953
0.00421283
0.00366156
0.00395949
0.00454271
0.00455663
0.00448703
0.0046009
0.00472212
0.0047951
0.00469282
0.00431578
0.00395432
0.0017423
0.00310341
0.00368611
0.00307175
0.00345778
0.00352048
0.00302611
0.00378227
0.00421942
0.00366121
0.00382532
0.00441904
0.00446477
0.00431149
0.00436454
0.00449572
0.00456118
0.00442581
0.00403168
0.00367761
0.00183979
0.0030477
0.00366064
0.00310772
0.0034015
0.00352595
0.00305692
0.00371435
0.0042065
0.00366754
0.00370125
0.00427617
0.00436471
0.00414713
0.004126
0.0042556
0.00432677
0.00417475
0.00376238
0.00339879
0.00193756
0.00299776
0.00362622
0.00314823
0.00334918
0.00351341
0.00309087
0.00365001
0.00417505
0.00367494
0.00358803
0.00411835
0.00425314
0.00399372
0.0038905
0.00400332
0.00408647
0.00393395
0.00351285
0.0031276
0.00203477
0.00295479
0.00358291
0.00319046
0.00330622
0.00348298
0.0031197
0.0035915
0.00412426
0.00367844
0.00348481
0.00394987
0.00412797
0.00384998
0.00366305
0.00374138
0.00383747
0.00369711
0.00328127
0.00287535
0.00213047
0.00291967
0.00353157
0.0032309
0.00327467
0.00343751
0.00313526
0.00353954
0.00407058
0.0036754
0.0033889
0.00377376
0.00398803
0.00371307
0.00344811
0.00347389
0.00357833
0.00346031
0.00306143
0.00264693
0.00222372
0.00289303
0.00347374
0.00326526
0.00325598
0.00338303
0.00313188
0.00349036
0.00401297
0.00366542
0.00329992
0.00359242
0.00383239
0.00357924
0.0032492
0.00320696
0.00330781
0.00322115
0.00284801
0.00243894
0.00231349
0.00287519
0.00341174
0.0032893
0.00324979
0.003327
0.00310813
0.00343571
0.00395265
0.00365234
0.00321828
0.00340861
0.00365975
0.00344395
0.00306846
0.00294866
0.00302686
0.00297565
0.00263868
0.00224378
0.00239871
0.00286619
0.00334848
0.00329997
0.00325296
0.00327575
0.00306348
0.00336781
0.00388881
0.00363877
0.00314631
0.00322579
0.00346963
0.00330168
0.00290442
0.0027077
0.00274215
0.00271882
0.0024313
0.0020562
0.00247847
0.00286573
0.00328703
0.00329562
0.00325991
0.00323421
0.00300485
0.00328097
0.0038139
0.00362497
0.00308831
0.00304837
0.00326421
0.00314712
0.00275126
0.00248922
0.00246437
0.00244965
0.00222062
0.00187564
0.00255204
0.00287302
0.0032301
0.00327646
0.00326352
0.00320445
0.00294449
0.00317295
0.00371895
0.00360895
0.00304754
0.00288291
0.00304737
0.00297614
0.00260261
0.00229202
0.00220345
0.00217486
0.00200039
0.00170197
0.00261912
0.00288663
0.00317958
0.00324368
0.00325803
0.00318537
0.00289077
0.00304666
0.00359618
0.00358235
0.00302371
0.00273854
0.00282503
0.00278574
0.00245225
0.00211128
0.00196421
0.00190544
0.00176837
0.00153094
0.00267981
0.00290447
0.00313782
0.00319815
0.00323852
0.00317135
0.00284984
0.00291508
0.00344278
0.00353171
0.00301359
0.00262328
0.00260739
0.00257654
0.00229295
0.00194275
0.00174552
0.00165062
0.00152914
0.00135477
0.00273425
0.00292428
0.00310499
0.00314657
0.00320321
0.00315514
0.00282466
0.00279133
0.00326091
0.00344455
0.00300679
0.00253903
0.00240761
0.00235552
0.00211779
0.00178027
0.00154516
0.00141544
0.00129263
0.00116836
0.00278273
0.00294388
0.00308078
0.00309304
0.00315161
0.00313068
0.0028101
0.0026844
0.00306279
0.00331585
0.00298643
0.0024824
0.00223722
0.00213372
0.00192587
0.0016155
0.00135929
0.00120002
0.00106792
0.00097357
0.00282577
0.00296136
0.00306375
0.00304135
0.00308532
0.0030929
0.00280011
0.00259885
0.00286586
0.0031483
0.00293575
0.00244463
0.00210084
0.00192475
0.00172439
0.00144263
0.00118167
0.001001
0.00085964
0.00077846
0.00286354
0.00297547
0.00305065
0.00299453
0.00300933
0.00303799
0.00278777
0.0025345
0.00268375
0.00295092
0.00284474
0.00240804
0.00199634
0.00173953
0.00152239
0.00126287
0.0010069
0.000813487
0.000667513
0.000591934
0.00289643
0.00298529
0.00303811
0.0029536
0.00292995
0.00296542
0.00276498
0.00248732
0.00252432
0.00274184
0.00271452
0.00235426
0.001917
0.00158405
0.00133011
0.00108095
0.000833954
0.000634064
0.000488306
0.000418873
0.00292476
0.00299042
0.00302218
0.00291887
0.00285132
0.00287789
0.00272578
0.00244867
0.00239024
0.00253729
0.00255216
0.00227227
0.00184704
0.00145815
0.0011566
0.000901882
0.000664676
0.000462735
0.000319296
0.000259799
0.00294811
0.00299089
0.00300235
0.00288596
0.00277645
0.00278022
0.0026683
0.00240928
0.00228001
0.00234785
0.00237058
0.00216101
0.00177147
0.00135599
0.00100811
0.000732449
0.000500004
0.00030093
0.000159957
0.000112941
0.00296597
0.00298713
0.00297771
0.00285285
0.00270724
0.00267764
0.0025932
0.00236238
0.0021877
0.00217899
0.00218461
0.00202592
0.00168242
0.00126547
0.000884624
0.000580509
0.00034254
0.000148806
1.16618e-05
-2.33799e-05
0.00297761
0.00297926
0.00294815
0.00281735
0.00264344
0.00257532
0.00250274
0.00230358
0.00210463
0.0020307
0.00200522
0.00187482
0.00157887
0.00117801
0.00078075
0.000450733
0.000198054
7.04018e-06
-0.000123862
-0.000148737
0.00298309
0.00296704
0.00291401
0.00277789
0.00258304
0.00247579
0.00240103
0.002231
0.00202431
0.00190028
0.00183858
0.00171853
0.00146406
0.00109065
0.000690465
0.000343329
7.32978e-05
-0.000121728
-0.000245254
-0.000260949
0.00298163
0.00295067
0.00287598
0.00273342
0.00252379
0.00238017
0.0022927
0.00214464
0.00194191
0.00178327
0.00168631
0.00156572
0.00134277
0.00100349
0.000612266
0.000256263
-2.71785e-05
-0.000232067
-0.000351054
-0.000357363
0.00297301
0.00292954
0.00283457
0.00268367
0.00246318
0.00228772
0.00218111
0.00204642
0.00185414
0.00167458
0.00154701
0.00142097
0.0012218
0.00091784
0.000547008
0.000190188
-0.000100982
-0.000316583
-0.000436755
-0.000434201
0.00295721
0.00290334
0.00278982
0.00262871
0.00239976
0.00219734
0.00206752
0.0019382
0.00175883
0.00157031
0.00141905
0.00128536
0.00110627
0.000836934
0.000495591
0.000147714
-0.000145354
-0.000367571
-0.000493241
-0.000485151
0.00293436
0.00287193
0.00274166
0.00256877
0.00233223
0.00210785
0.00195307
0.00182107
0.00165378
0.00146599
0.00130011
0.00115991
0.000998768
0.000764826
0.000460143
0.000132768
-0.000153881
-0.000375668
-0.00050667
-0.000498696
0.00290461
0.00283523
0.00269001
0.00250427
0.00226
0.00201718
0.0018378
0.0016959
0.001537
0.00135607
0.0011852
0.00104429
0.000901786
0.000705378
0.000445412
0.000151452
-0.000115996
-0.000326674
-0.000456855
-0.0004532
0.00286854
0.00279314
0.00263448
0.00243538
0.0021831
0.00192465
0.00172054
0.00156269
0.00140626
0.00123417
0.00106545
0.000932051
0.000814296
0.000661186
0.000457943
0.000215573
-1.55267e-05
-0.000199076
-0.000313668
-0.000309012
0.00282708
0.00274559
0.00257491
0.00236264
0.00210084
0.00182933
0.00160148
0.00142223
0.00126005
0.00109284
0.000927739
0.000805856
0.000722554
0.000627554
0.000503945
0.000345699
0.000180503
4.32833e-05
-3.79841e-05
-1.59328e-05
0.00278109
0.00269266
0.00251173
0.00228672
0.00201408
0.00172858
0.00147895
0.00127615
0.00109991
0.000929095
0.000762693
0.000643027
0.000584008
0.000557802
0.000555367
0.000557612
0.000558233
0.000554123
0.000534036
0.000538453
0.00273084
0.00263527
0.00244606
0.00220844
0.00192325
0.00162225
0.00135046
0.00112327
0.000929004
0.000745515
0.000570365
0.000438872
0.000374599
0.000359299
0.000420463
0.000614523
0.00097888
0.00148358
0.00199379
0.0023482
0.0026763
0.00257511
0.00237844
0.00212942
0.00182978
0.00151004
0.00121551
0.000960947
0.000746882
0.000555577
0.000373558
0.000252093
0.000258026
0.000413032
0.00074969
0.00126359
0.00184042
0.00235259
0.0027009
0.00280337
0.00261973
0.00251345
0.00230874
0.00204896
0.00173687
0.0014
0.00107492
0.000786745
0.000551338
0.000373143
0.000246962
0.000219304
0.000368962
0.000715203
0.00119862
0.00173081
0.00221356
0.00258066
0.0028007
0.00283635
0.00256389
0.00245206
0.00223898
0.00196541
0.00164246
0.00129934
0.0009608
0.000639167
0.000356728
0.000160714
0.00010975
0.0002625
0.000642026
0.00114588
0.00166503
0.00214874
0.00256463
0.00287483
0.00304061
0.00300988
0.00251147
0.00239402
0.00217306
0.00188547
0.00154414
0.00118455
0.000858966
0.000616333
0.000450177
0.000353025
0.000326061
0.000362767
0.000489231
0.000758076
0.00118354
0.00174381
0.00234053
0.00283654
0.0031271
0.00315001
0.00246637
0.00234164
0.00211296
0.00182638
0.0014819
0.00111213
0.000751714
0.000433205
0.000202106
0.000120028
0.000239888
0.000529866
0.000949663
0.00144407
0.00192984
0.00235331
0.00270073
0.00295492
0.00307655
0.00300214
0.00242869
0.00229428
0.00205415
0.00175253
0.0013917
0.00101601
0.000675462
0.000414799
0.000247595
0.000196097
0.000301136
0.000549976
0.000908882
0.00134291
0.00179056
0.00219683
0.00253774
0.00279526
0.00292904
0.00287198
0.025604
0.018235
0.00844371
0.00158762
-0.000737991
-0.000448141
0.000266579
0.000702904
0.000768648
0.000448614
4.74253e-06
-0.000274188
-0.000462978
-0.0007014
-0.000934076
-0.00115048
-0.00139952
-0.00163221
-0.00182589
-0.0020228
-0.00222337
-0.00242349
-0.00263802
-0.00284204
-0.00301722
-0.00320086
-0.00341623
-0.00363698
-0.00383692
-0.00401671
-0.0042014
-0.00439938
-0.00458482
-0.0047567
-0.0049401
-0.00513429
-0.0053285
-0.00552968
-0.00574584
-0.00597181
-0.00619909
-0.00642594
-0.00666472
-0.00691896
-0.00717755
-0.00743592
-0.00769368
-0.00795333
-0.00820937
-0.0084548
-0.00869788
-0.0089578
-0.00922957
-0.00949697
-0.00977217
-0.010062
-0.0103589
-0.0106539
-0.0109401
-0.0112215
-0.0115054
-0.0118016
-0.0121247
-0.0124636
-0.0128057
-0.0131465
-0.0134884
-0.0138315
-0.0141726
-0.0145273
-0.0148854
-0.0152458
-0.0156091
-0.0159768
-0.0163487
-0.0167249
-0.0170968
-0.0174677
-0.0178519
-0.0182343
-0.0186204
-0.0190049
-0.0193991
-0.0198018
-0.0202002
-0.0205988
-0.021017
-0.0214479
-0.021878
-0.0223067
-0.0227434
-0.0231875
-0.0236385
-0.0240954
-0.0245609
-0.0250195
-0.0254857
-0.0259634
-0.0263512
-0.0267516
0.0243695
0.0180568
0.00853185
0.00171992
-0.000653709
-0.000404849
0.000294415
0.000722925
0.000783814
0.000460321
1.3761e-05
-0.000266744
-0.000456471
-0.000695822
-0.000929183
-0.00114599
-0.00139554
-0.00162872
-0.00182271
-0.0020199
-0.00222076
-0.00242108
-0.00263586
-0.00284011
-0.00301544
-0.00319916
-0.00341466
-0.00363557
-0.00383563
-0.00401549
-0.00420023
-0.00439828
-0.0045838
-0.00475571
-0.00493915
-0.00513339
-0.00532764
-0.00552885
-0.00574504
-0.00597105
-0.00619837
-0.00642525
-0.00666405
-0.00691832
-0.00717694
-0.00743534
-0.00769312
-0.0079528
-0.00820887
-0.00845433
-0.00869742
-0.00895736
-0.00922915
-0.00949657
-0.00977179
-0.0100616
-0.0103585
-0.0106536
-0.0109398
-0.0112212
-0.0115051
-0.0118013
-0.0121244
-0.0124633
-0.0128054
-0.0131462
-0.0134882
-0.0138313
-0.0141724
-0.0145271
-0.0148852
-0.0152456
-0.015609
-0.0159767
-0.0163485
-0.0167247
-0.0170967
-0.0174676
-0.0178518
-0.0182342
-0.0186203
-0.0190048
-0.019399
-0.0198017
-0.0202002
-0.0205987
-0.0210169
-0.0214479
-0.021878
-0.0223067
-0.0227433
-0.0231875
-0.0236385
-0.0240953
-0.0245608
-0.0250195
-0.0254856
-0.0259634
-0.0263512
-0.0267516
0.023354
0.0179474
0.00875218
0.00198756
-0.00050318
-0.00034886
0.000320054
0.000742441
0.000800256
0.000473949
2.50945e-05
-0.000257261
-0.000448727
-0.000689717
-0.000924147
-0.00114153
-0.00139163
-0.00162528
-0.00181959
-0.00201713
-0.00221826
-0.00241878
-0.00263379
-0.00283829
-0.00301376
-0.00319759
-0.00341324
-0.00363429
-0.00383445
-0.00401438
-0.00419918
-0.00439733
-0.00458291
-0.00475484
-0.00493831
-0.0051326
-0.00532688
-0.00552812
-0.00574434
-0.00597039
-0.00619774
-0.00642464
-0.00666345
-0.00691776
-0.00717641
-0.00743483
-0.00769264
-0.00795234
-0.00820844
-0.00845392
-0.00869702
-0.00895697
-0.00922878
-0.00949622
-0.00977144
-0.0100613
-0.0103582
-0.0106533
-0.0109395
-0.0112209
-0.0115049
-0.0118011
-0.0121241
-0.0124631
-0.0128052
-0.013146
-0.013488
-0.0138312
-0.0141723
-0.014527
-0.0148851
-0.0152455
-0.0156088
-0.0159766
-0.0163484
-0.0167246
-0.0170966
-0.0174675
-0.0178517
-0.0182341
-0.0186203
-0.0190047
-0.019399
-0.0198017
-0.0202001
-0.0205987
-0.0210169
-0.0214478
-0.0218779
-0.0223066
-0.0227433
-0.0231875
-0.0236385
-0.0240953
-0.0245608
-0.0250195
-0.0254856
-0.0259634
-0.0263512
-0.0267516
0.0224298
0.0178173
0.00901613
0.00231861
-0.000304816
-0.000275986
0.000353045
0.00076928
0.00082267
0.000492187
4.09768e-05
-0.000243604
-0.000437738
-0.000681141
-0.000917241
-0.00113563
-0.00138642
-0.00162064
-0.00181553
-0.00201364
-0.00221516
-0.00241587
-0.00263111
-0.00283592
-0.00301167
-0.00319573
-0.00341155
-0.00363274
-0.00383306
-0.00401313
-0.00419804
-0.00439628
-0.00458194
-0.00475391
-0.00493743
-0.00513177
-0.00532608
-0.00552735
-0.00574361
-0.0059697
-0.00619707
-0.00642399
-0.00666284
-0.00691718
-0.00717586
-0.00743431
-0.00769214
-0.00795186
-0.00820799
-0.00845349
-0.0086966
-0.00895656
-0.00922841
-0.00949585
-0.00977109
-0.010061
-0.0103579
-0.010653
-0.0109393
-0.0112207
-0.0115046
-0.0118008
-0.0121239
-0.0124629
-0.012805
-0.0131458
-0.0134878
-0.013831
-0.0141721
-0.0145268
-0.0148849
-0.0152453
-0.0156087
-0.0159764
-0.0163483
-0.0167245
-0.0170965
-0.0174674
-0.0178516
-0.018234
-0.0186202
-0.0190047
-0.0193989
-0.0198016
-0.0202001
-0.0205986
-0.0210168
-0.0214478
-0.0218779
-0.0223066
-0.0227433
-0.0231874
-0.0236385
-0.0240953
-0.0245608
-0.0250195
-0.0254856
-0.0259634
-0.0263512
-0.0267516
0.0215039
0.0176201
0.00927423
0.00266384
-9.13016e-05
-0.000196922
0.000388753
0.000800756
0.00085018
0.000515306
6.21912e-05
-0.000224868
-0.000422579
-0.000669118
-0.00090756
-0.00112744
-0.00137899
-0.00161389
-0.00180976
-0.00200886
-0.002211
-0.00241193
-0.0026273
-0.00283248
-0.00300878
-0.00319324
-0.00340922
-0.00363053
-0.00383112
-0.0040115
-0.00419661
-0.00439499
-0.00458075
-0.00475281
-0.00493641
-0.0051308
-0.00532517
-0.0055265
-0.0057428
-0.00596891
-0.0061963
-0.00642326
-0.00666214
-0.00691653
-0.00717525
-0.00743372
-0.00769157
-0.00795131
-0.00820747
-0.008453
-0.00869613
-0.00895611
-0.00922798
-0.00949544
-0.00977069
-0.0100606
-0.0103576
-0.0106527
-0.0109389
-0.0112204
-0.0115043
-0.0118005
-0.0121236
-0.0124626
-0.0128048
-0.0131456
-0.0134876
-0.0138308
-0.0141719
-0.0145266
-0.0148847
-0.0152451
-0.0156085
-0.0159763
-0.0163482
-0.0167244
-0.0170963
-0.0174673
-0.0178515
-0.0182339
-0.0186201
-0.0190046
-0.0193988
-0.0198016
-0.0202
-0.0205986
-0.0210168
-0.0214477
-0.0218779
-0.0223066
-0.0227432
-0.0231874
-0.0236384
-0.0240953
-0.0245608
-0.0250194
-0.0254856
-0.0259634
-0.0263513
-0.0267516
0.020578
0.0173581
0.00952208
0.00301675
0.00013195
-0.000114156
0.000424217
0.000833291
0.000880241
0.000541438
8.68195e-05
-0.000202774
-0.000404423
-0.000654322
-0.000895422
-0.001117
-0.00136914
-0.00160473
-0.00180194
-0.00200247
-0.00220556
-0.00240679
-0.00262216
-0.00282774
-0.00300489
-0.00318997
-0.00340604
-0.00362737
-0.00382835
-0.00400928
-0.00419474
-0.00439329
-0.00457925
-0.00475151
-0.00493521
-0.00512966
-0.00532412
-0.00552555
-0.0057419
-0.00596799
-0.00619539
-0.00642239
-0.00666133
-0.00691577
-0.00717453
-0.00743305
-0.00769092
-0.00795065
-0.00820683
-0.00845241
-0.00869558
-0.00895558
-0.00922746
-0.00949495
-0.00977025
-0.0100602
-0.0103572
-0.0106523
-0.0109386
-0.01122
-0.0115039
-0.0118001
-0.0121232
-0.0124623
-0.0128045
-0.0131453
-0.0134874
-0.0138305
-0.0141716
-0.0145263
-0.0148845
-0.0152449
-0.0156083
-0.0159761
-0.016348
-0.0167242
-0.0170962
-0.0174672
-0.0178514
-0.0182338
-0.01862
-0.0190045
-0.0193987
-0.0198015
-0.0201999
-0.0205985
-0.0210167
-0.0214477
-0.0218778
-0.0223065
-0.0227432
-0.0231874
-0.0236384
-0.0240952
-0.0245608
-0.0250194
-0.0254856
-0.0259634
-0.0263515
-0.0267517
0.0196681
0.0170445
0.00976075
0.00337828
0.000365863
-2.70582e-05
0.000458754
0.000865515
0.00091194
0.000569654
0.000113341
-0.000179013
-0.000384774
-0.000638076
-0.000881884
-0.00110507
-0.00135746
-0.00159354
-0.00179228
-0.00199453
-0.00219887
-0.0024005
-0.00261575
-0.00282173
-0.00300001
-0.00318591
-0.00340194
-0.00362313
-0.00382456
-0.00400628
-0.00419224
-0.00439103
-0.0045773
-0.00474992
-0.0049338
-0.00512831
-0.0053229
-0.00552451
-0.0057409
-0.00596693
-0.00619432
-0.00642137
-0.00666037
-0.00691484
-0.00717365
-0.00743225
-0.00769014
-0.00794985
-0.00820605
-0.00845171
-0.00869494
-0.00895494
-0.00922683
-0.00949435
-0.00976974
-0.0100597
-0.0103567
-0.0106518
-0.0109381
-0.0112196
-0.0115036
-0.0117997
-0.0121228
-0.0124619
-0.0128041
-0.013145
-0.013487
-0.0138302
-0.0141713
-0.014526
-0.0148842
-0.0152447
-0.0156081
-0.0159759
-0.0163478
-0.016724
-0.017096
-0.017467
-0.0178512
-0.0182336
-0.0186198
-0.0190043
-0.0193986
-0.0198014
-0.0201998
-0.0205984
-0.0210166
-0.0214476
-0.0218777
-0.0223064
-0.0227431
-0.0231873
-0.0236383
-0.0240952
-0.0245607
-0.0250194
-0.0254856
-0.0259635
-0.0263516
-0.0267518
0.0187873
0.0166853
0.00998548
0.00374641
0.000610489
6.4805e-05
0.000492153
0.000896834
0.000944952
0.000599697
0.000141263
-0.000154173
-0.000364223
-0.000621029
-0.000867598
-0.00109232
-0.0013447
-0.00158106
-0.00178131
-0.00198542
-0.00219115
-0.00239327
-0.00260834
-0.00281474
-0.00299436
-0.00318121
-0.00339708
-0.00361793
-0.00381982
-0.00400248
-0.00418905
-0.00438811
-0.00457482
-0.00474798
-0.00493213
-0.00512672
-0.0053215
-0.00552335
-0.00573982
-0.00596576
-0.00619311
-0.00642022
-0.00665925
-0.00691371
-0.00717256
-0.00743125
-0.00768919
-0.00794888
-0.00820509
-0.00845087
-0.0086942
-0.0089542
-0.00922604
-0.00949361
-0.00976912
-0.0100592
-0.0103562
-0.0106513
-0.0109377
-0.0112192
-0.0115031
-0.0117992
-0.0121223
-0.0124614
-0.0128037
-0.0131446
-0.0134866
-0.0138298
-0.0141709
-0.0145256
-0.0148838
-0.0152443
-0.0156078
-0.0159755
-0.0163474
-0.0167237
-0.0170957
-0.0174668
-0.017851
-0.0182334
-0.0186196
-0.0190041
-0.0193984
-0.0198012
-0.0201996
-0.0205982
-0.0210164
-0.0214475
-0.0218776
-0.0223063
-0.022743
-0.0231872
-0.0236383
-0.0240951
-0.0245607
-0.0250193
-0.0254855
-0.0259635
-0.0263519
-0.0267519
0.0179465
0.0162833
0.0101871
0.00411713
0.00086616
0.000162951
0.000525149
0.000927014
0.000978944
0.00063149
0.000170561
-0.000128321
-0.000342852
-0.000603283
-0.000852709
-0.00107902
-0.00133133
-0.00156786
-0.00176956
-0.00197551
-0.00218271
-0.00238535
-0.00260021
-0.00280705
-0.00298816
-0.00317604
-0.00339167
-0.00361204
-0.00381434
-0.003998
-0.00418522
-0.00438455
-0.00457179
-0.00474567
-0.0049302
-0.0051249
-0.00531993
-0.00552208
-0.00573863
-0.00596446
-0.00619178
-0.00641899
-0.00665804
-0.00691241
-0.00717124
-0.00743001
-0.00768801
-0.00794767
-0.00820391
-0.00844988
-0.00869338
-0.00895335
-0.00922509
-0.0094927
-0.00976836
-0.0100586
-0.0103556
-0.0106507
-0.0109371
-0.0112187
-0.0115026
-0.0117987
-0.0121217
-0.0124609
-0.0128032
-0.0131441
-0.0134861
-0.0138293
-0.0141704
-0.0145251
-0.0148833
-0.0152438
-0.0156073
-0.0159751
-0.016347
-0.0167233
-0.0170954
-0.0174664
-0.0178507
-0.0182331
-0.0186193
-0.0190039
-0.0193982
-0.019801
-0.0201994
-0.020598
-0.0210163
-0.0214473
-0.0218775
-0.0223062
-0.0227429
-0.0231871
-0.0236382
-0.024095
-0.0245606
-0.0250193
-0.0254855
-0.0259635
-0.0263521
-0.0267521
0.0171535
0.0158417
0.0103565
0.00448723
0.0011346
0.000269944
0.000558819
0.000955622
0.0010133
0.000664905
0.00020132
-0.000101393
-0.000320602
-0.000584765
-0.000837167
-0.00106522
-0.00131754
-0.00155421
-0.00175731
-0.00196509
-0.00217374
-0.00237694
-0.00259159
-0.00279888
-0.00298153
-0.00317051
-0.00338587
-0.00360568
-0.00380835
-0.00399302
-0.00418089
-0.00438048
-0.00456831
-0.00474302
-0.00492801
-0.00512289
-0.00531822
-0.00552072
-0.00573733
-0.00596304
-0.00619036
-0.00641771
-0.00665679
-0.00691102
-0.00716973
-0.00742853
-0.00768656
-0.00794617
-0.00820248
-0.00844874
-0.00869249
-0.00895243
-0.00922403
-0.00949165
-0.00976744
-0.0100577
-0.0103548
-0.01065
-0.0109365
-0.0112182
-0.0115021
-0.0117981
-0.012121
-0.0124601
-0.0128025
-0.0131435
-0.0134855
-0.0138287
-0.0141698
-0.0145245
-0.0148827
-0.0152432
-0.0156068
-0.0159746
-0.0163465
-0.0167227
-0.0170949
-0.017466
-0.0178503
-0.0182327
-0.018619
-0.0190036
-0.0193979
-0.0198007
-0.0201991
-0.0205977
-0.021016
-0.0214471
-0.0218773
-0.022306
-0.0227427
-0.0231869
-0.023638
-0.0240949
-0.0245605
-0.0250192
-0.0254854
-0.0259635
-0.0263524
-0.0267523
0.0164131
0.015367
0.0104869
0.00485429
0.00141736
0.000387902
0.000593872
0.000981974
0.0010472
0.000699772