/*--------------------------------*- C++ -*----------------------------------*\
| =========                 |                                                 |
| \\      /  F ield         | OpenFOAM: The Open Source CFD Toolbox           |
|  \\    /   O peration     | Version:  2106                                  |
|   \\  /    A nd           | Website:  www.openfoam.com                      |
|    \\/     M anipulation  |                                                 |
\*---------------------------------------------------------------------------*/
FoamFile
{
    version     2.0;
    format      ascii;
    arch        "LSB;label=32;scalar=64";
    class       volScalarField;
    location    "0.975";
    object      p;
}
// * * * * * * * * * * * * * * * * * * * * * * * * * * * * * * * * * * * * * //

dimensions      [0 2 -2 0 0 0 0];

internalField   nonuniform List<scalar> 
9600
(
3.68978e-11
0.00430797
0.00313593
0.00291718
0.00276451
0.00360879
0.00365312
0.00384201
0.00425923
0.0037183
0.00356958
0.00381008
0.00455474
0.00517691
0.005799
0.00637057
0.00684895
0.00785362
0.00846045
0.0106558
-2.96778e-07
0.00430566
0.00315047
0.00291892
0.00276879
0.00360206
0.0036491
0.00384499
0.00426109
0.00372071
0.00357433
0.00380626
0.00456084
0.00515341
0.00580096
0.00630091
0.00685411
0.00777558
0.00848431
0.0103391
-3.57762e-07
0.00430321
0.00316501
0.00292018
0.00277308
0.00359384
0.00364676
0.00384997
0.00426236
0.00372331
0.00358116
0.00379674
0.00456392
0.00512138
0.00579819
0.00623071
0.00685795
0.00770124
0.00849194
0.00995819
1.10874e-06
0.00430141
0.00317937
0.00292082
0.00277789
0.00358883
0.00364471
0.00385515
0.00426096
0.00372525
0.00359072
0.00378087
0.00456644
0.00508335
0.00579355
0.00615935
0.00685971
0.0076363
0.00846669
0.00960783
5.05216e-06
0.00429951
0.0031935
0.002921
0.00278466
0.00358589
0.0036411
0.00386032
0.00425644
0.00372677
0.00360313
0.0037621
0.0045709
0.00503995
0.0057915
0.00608495
0.00686281
0.00756994
0.00841353
0.00930907
1.18745e-05
0.00429682
0.00320715
0.00292086
0.00279378
0.00358331
0.00363545
0.003865
0.0042493
0.00372803
0.00361798
0.00374382
0.00457725
0.0049943
0.0057908
0.00600967
0.00686496
0.0075008
0.00833907
0.00904346
2.15486e-05
0.00429291
0.00322003
0.00292054
0.00280527
0.00358058
0.00362786
0.00386889
0.00424042
0.00372899
0.00363474
0.00372787
0.00458497
0.00494819
0.00579007
0.00593572
0.00686085
0.00743356
0.00824213
0.00879656
3.37532e-05
0.00428752
0.00323209
0.00292023
0.00281906
0.00357765
0.00361861
0.00387197
0.00423071
0.00372954
0.00365294
0.00371503
0.0045937
0.004903
0.00578895
0.00586371
0.00684796
0.00737001
0.00811956
0.00856356
4.80393e-05
0.0042807
0.00324352
0.00292006
0.00283491
0.00357453
0.00360818
0.00387437
0.00422085
0.00372961
0.0036722
0.00370557
0.004603
0.00485993
0.00578655
0.00579473
0.00682518
0.00730974
0.00797203
0.00834196
6.39895e-05
0.00427269
0.00325465
0.00292006
0.00285249
0.00357122
0.00359706
0.00387614
0.00421132
0.00372915
0.00369219
0.00369928
0.00461244
0.00481984
0.00578154
0.00573044
0.00679104
0.00725249
0.0078021
0.00812728
8.12913e-05
0.0042638
0.00326578
0.00292018
0.00287144
0.00356766
0.00358564
0.00387726
0.00420233
0.00372811
0.00371262
0.0036957
0.00462153
0.00478318
0.0057726
0.00567195
0.00674397
0.00719818
0.00761296
0.00791354
9.97391e-05
0.00425425
0.00327715
0.00292033
0.00289153
0.00356372
0.00357426
0.00387773
0.00419398
0.00372643
0.00373324
0.00369433
0.00462972
0.00474982
0.0057583
0.00561981
0.00668266
0.00714606
0.00740885
0.00769461
0.000119215
0.00424416
0.00328891
0.00292046
0.00291258
0.00355923
0.00356318
0.00387744
0.0041863
0.00372407
0.00375378
0.00369472
0.0046364
0.00472053
0.0057371
0.00557431
0.00660652
0.00709398
0.00719494
0.0074658
0.000139669
0.00423357
0.00330119
0.00292049
0.00293452
0.00355407
0.0035526
0.00387634
0.00417925
0.0037211
0.00377398
0.00369662
0.00464087
0.00469501
0.00570771
0.00553522
0.00651582
0.00703848
0.00697697
0.00722478
0.000161103
0.00422247
0.00331408
0.00292037
0.00295735
0.00354811
0.00354265
0.0038744
0.00417278
0.0037176
0.00379353
0.00370001
0.00464235
0.0046732
0.00566927
0.00550164
0.006412
0.00697539
0.00676052
0.00697117
0.00018356
0.0042108
0.00332768
0.00292002
0.00298109
0.00354129
0.00353342
0.0038716
0.00416684
0.00371376
0.00381204
0.00370511
0.00464013
0.00465512
0.00562138
0.00547193
0.00629748
0.00690077
0.00655029
0.00670612
0.000207109
0.00419846
0.00334207
0.0029194
0.00300579
0.00353351
0.00352502
0.00386797
0.0041613
0.00370989
0.00382897
0.00371224
0.00463363
0.00464061
0.00556427
0.00544376
0.00617493
0.00681149
0.00634946
0.00643209
0.000231845
0.00418533
0.00335733
0.00291845
0.0030315
0.00352473
0.00351861
0.00386362
0.00415597
0.00370632
0.00384379
0.0037217
0.00462245
0.00462917
0.00549881
0.00541459
0.00604667
0.00670546
0.00615951
0.00615237
0.000257884
0.00417125
0.00337356
0.0029171
0.00305827
0.00351488
0.00351169
0.00385871
0.00415062
0.00370343
0.00385595
0.00373372
0.00460647
0.00461965
0.00542642
0.00538209
0.00591445
0.00658227
0.00598063
0.00587069
0.000285357
0.00415605
0.00339083
0.00291531
0.00308612
0.00350399
0.00350523
0.00385344
0.00414494
0.00370163
0.00386495
0.0037482
0.00458597
0.00461067
0.00534868
0.00534412
0.0057794
0.00644309
0.00581228
0.00559103
0.000314409
0.00413953
0.00340922
0.00291304
0.00311504
0.00349211
0.00349918
0.00384816
0.00413846
0.00370132
0.00387062
0.00376471
0.00456153
0.00460069
0.00526692
0.00529905
0.00564225
0.0062893
0.00565334
0.00531783
0.000345204
0.00412146
0.00342882
0.00291024
0.003145
0.00347931
0.00349338
0.00384334
0.00413064
0.00370271
0.00387304
0.00378262
0.00453402
0.00458812
0.00518162
0.00524633
0.00550379
0.0061216
0.00550226
0.00505601
0.000377918
0.00410162
0.00344973
0.0029069
0.00317593
0.00346579
0.00348746
0.00383952
0.00412107
0.00370591
0.00387243
0.00380088
0.00450456
0.00457176
0.00509255
0.00518609
0.00536508
0.00594046
0.00535697
0.00481053
0.000412743
0.00407975
0.00347198
0.00290307
0.00320768
0.00345186
0.00348091
0.00383722
0.0041095
0.00371076
0.00386933
0.00381816
0.004474
0.00455097
0.0049995
0.00511824
0.00522723
0.00574703
0.00521445
0.00458517
0.00044988
0.00405559
0.00349561
0.00289881
0.00324006
0.00343789
0.00347319
0.00383697
0.00409582
0.00371674
0.00386452
0.00383321
0.00444277
0.00452552
0.00490223
0.00504211
0.00509155
0.00554383
0.00507092
0.0043815
0.000489541
0.0040289
0.00352072
0.00289422
0.00327283
0.00342439
0.00346371
0.00383919
0.00408005
0.00372316
0.00385888
0.00384477
0.00441107
0.00449558
0.00480009
0.00495688
0.00495968
0.00533429
0.00492263
0.004199
0.000531946
0.00399946
0.00355087
0.00288943
0.00330566
0.00341197
0.00345195
0.00384405
0.00406244
0.00372936
0.00385345
0.00385169
0.0043784
0.00446161
0.00469244
0.00486133
0.00483311
0.00512257
0.00476658
0.00403554
0.000577318
0.00396703
0.00357819
0.00288473
0.00333803
0.00340129
0.00343752
0.00385155
0.0040436
0.00373426
0.0038491
0.00385342
0.00434347
0.00442449
0.00457944
0.00475399
0.00471259
0.00491349
0.00460069
0.00388731
0.000625884
0.00393139
0.00360641
0.00288047
0.00336946
0.00339301
0.00342004
0.00386163
0.0040243
0.00373641
0.00384643
0.00384996
0.00430446
0.0043849
0.00446249
0.00463392
0.00459748
0.0047122
0.00442438
0.00374865
0.000677865
0.00389242
0.00363527
0.00287697
0.00339944
0.00338781
0.00339923
0.0038739
0.0040056
0.00373463
0.00384553
0.00384151
0.00425948
0.00434294
0.00434391
0.00450074
0.00448522
0.0045238
0.00423995
0.00361261
0.000733468
0.00385008
0.00366439
0.00287465
0.0034275
0.0033863
0.00337493
0.00388773
0.00398877
0.00372772
0.00384598
0.00382874
0.00420665
0.00429813
0.00422691
0.00435527
0.00437174
0.00435181
0.00405289
0.00347247
0.000792859
0.00380439
0.00369336
0.0028739
0.00345317
0.00338901
0.00334713
0.00390241
0.00397503
0.00371414
0.00384703
0.00381345
0.0041435
0.0042489
0.00411578
0.00420034
0.004252
0.00419613
0.00387047
0.0033251
0.000856196
0.00375551
0.0037217
0.00287508
0.00347588
0.00339645
0.0033151
0.00391663
0.00396577
0.00369306
0.00384705
0.00379805
0.00406885
0.00419234
0.00401394
0.00404044
0.00412164
0.00405295
0.00369919
0.00317351
0.000923613
0.00370365
0.00374888
0.00287855
0.00349505
0.00340906
0.00328118
0.00392894
0.00396235
0.00366433
0.00384301
0.00378491
0.00398402
0.00412471
0.00392228
0.00388139
0.00397896
0.00391647
0.00354186
0.00302447
0.000995191
0.00364911
0.00377435
0.00288458
0.00351025
0.00342705
0.00324586
0.003938
0.00396613
0.00362828
0.0038312
0.00377552
0.0038915
0.00404283
0.00383933
0.00372938
0.00382497
0.00378028
0.00339718
0.00288425
0.00107099
0.00359227
0.00379762
0.00289344
0.00352086
0.00345063
0.00320977
0.00394196
0.00397824
0.00358612
0.00380733
0.0037703
0.00379706
0.00394495
0.00376134
0.0035894
0.0036629
0.00363933
0.00326184
0.00275618
0.00115102
0.00353355
0.00381832
0.0029054
0.00352596
0.00347991
0.00317422
0.00393789
0.00399875
0.00354022
0.00376752
0.00376825
0.00370774
0.00383141
0.00368204
0.00346415
0.00349802
0.00349129
0.0031315
0.0026397
0.00123533
0.00347344
0.00383595
0.00292084
0.00352468
0.00351447
0.00314105
0.00392285
0.00402674
0.00349485
0.00370936
0.00376772
0.00363003
0.00370517
0.00359481
0.00335309
0.00333646
0.00333639
0.00300214
0.00253144
0.00132389
0.00341245
0.00384995
0.00294029
0.00351629
0.00355343
0.00311238
0.00389459
0.0040602
0.00345532
0.00363232
0.00376314
0.00356843
0.00357141
0.00349434
0.003253
0.00318377
0.00317675
0.00287114
0.002427
0.00141656
0.00335118
0.00385973
0.00296447
0.00350027
0.00359492
0.00309113
0.0038523
0.00409513
0.00342648
0.00353863
0.00374559
0.00352306
0.00343734
0.00337801
0.00315912
0.00304454
0.00301577
0.00273674
0.00232266
0.00151318
0.00329037
0.00386445
0.00299441
0.00347642
0.00363586
0.00308052
0.00379598
0.004126
0.00341233
0.00343373
0.00370761
0.00349028
0.00331095
0.00324685
0.00306508
0.00292106
0.00285863
0.00259839
0.00221617
0.00161335
0.00323109
0.00386323
0.00303082
0.00344493
0.0036721
0.0030832
0.00372847
0.00414604
0.00341449
0.00332529
0.00364605
0.0034644
0.00319853
0.0031052
0.00296395
0.00281176
0.00271151
0.00245763
0.0021058
0.00171654
0.00317459
0.00385502
0.00307397
0.00340687
0.00369907
0.00309982
0.00365486
0.00414935
0.00343165
0.00322177
0.00356229
0.0034372
0.00310245
0.00295901
0.00285107
0.00271146
0.00257982
0.00231944
0.0019903
0.0018221
0.00312232
0.00383871
0.00312345
0.00335842
0.0037128
0.00313022
0.00358072
0.00413298
0.00345974
0.00312941
0.00345911
0.00340171
0.00302179
0.00281448
0.00272563
0.0026132
0.00246508
0.00219202
0.00187176
0.00192924
0.00307574
0.00381355
0.00317858
0.00332095
0.00371041
0.00317092
0.00351139
0.00409673
0.00349254
0.00305193
0.00334166
0.00335368
0.00295444
0.0026769
0.00258981
0.00251075
0.00236308
0.00208151
0.00175767
0.00203708
0.00303624
0.00377929
0.00323765
0.00328973
0.00369006
0.00321502
0.00345131
0.00404479
0.00352362
0.00299084
0.00321629
0.00329068
0.00289761
0.00255089
0.00244689
0.0024005
0.0022671
0.00198758
0.00165814
0.00214468
0.00300501
0.00373642
0.00329753
0.00326859
0.00365246
0.00325481
0.00340266
0.00398241
0.00354757
0.00294484
0.00308882
0.00321226
0.00284776
0.00244034
0.0023007
0.0022807
0.00217218
0.00190497
0.00157865
0.00225104
0.00298285
0.00368621
0.00335428
0.0032603
0.00360153
0.0032756
0.00336563
0.0039157
0.003555
0.00291057
0.00296296
0.0031194
0.00280062
0.00234758
0.00215659
0.00215017
0.00207571
0.00182868
0.00151648
0.00235519
0.00297033
0.00363069
0.0034031
0.00326576
0.00354392
0.00327798
0.00333609
0.00385019
0.00356038
0.00288583
0.00284157
0.00301314
0.0027518
0.00227321
0.00202139
0.00200909
0.00197397
0.00175682
0.00146483
0.0024561
0.00296769
0.00357253
0.00343951
0.00328379
0.00348737
0.00326118
0.00330498
0.0037875
0.00356067
0.00286981
0.00272719
0.00289425
0.00269665
0.00221575
0.00190279
0.0018623
0.00186116
0.00168778
0.0014193
0.00255275
0.0029748
0.00351475
0.00346173
0.00331072
0.00343849
0.00322776
0.00326403
0.00372684
0.00355975
0.00286364
0.00262231
0.00276451
0.00263053
0.00217015
0.0018065
0.00172009
0.00173435
0.00161589
0.0013799
0.0026443
0.0029912
0.0034606
0.0034687
0.00334061
0.00340218
0.00318436
0.0032072
0.00366052
0.00355843
0.00287041
0.00253022
0.00262755
0.00255038
0.00213015
0.00173271
0.0015928
0.00159868
0.00153285
0.00134596
0.00273013
0.00301585
0.00341293
0.00346086
0.00336628
0.00337996
0.00314023
0.00313264
0.00358021
0.00355516
0.00289223
0.00245667
0.00248808
0.00245401
0.00208957
0.00167667
0.00148652
0.00146575
0.0014349
0.00131162
0.00281003
0.00304715
0.00337428
0.00344026
0.00338206
0.00337021
0.00310401
0.00304592
0.00347861
0.00354188
0.00292797
0.00240913
0.00235268
0.00234028
0.00204212
0.00163347
0.00140124
0.00134601
0.00132699
0.00126785
0.00288422
0.00308287
0.00334564
0.00341031
0.00338415
0.00336665
0.0030812
0.0029585
0.0033539
0.00350589
0.00297334
0.00239221
0.00223219
0.00221331
0.00198069
0.00159826
0.00133386
0.0012446
0.00122007
0.00120945
0.00295295
0.00312073
0.00332721
0.00337552
0.00337075
0.00336188
0.00307303
0.00288171
0.00320908
0.00343713
0.00301678
0.00240478
0.00213827
0.00208212
0.00190022
0.00156299
0.0012817
0.00116152
0.00112473
0.00114031
0.0030166
0.00315862
0.00331837
0.00333968
0.00334197
0.00335006
0.00307607
0.00282303
0.00305787
0.00333344
0.0030419
0.00244238
0.00207894
0.00195906
0.00180435
0.00151869
0.00124018
0.00109471
0.00104585
0.00107043
0.00307572
0.00319482
0.00331723
0.00330648
0.0032998
0.00332663
0.00308375
0.00278602
0.00291645
0.00319839
0.00303392
0.00249293
0.00205535
0.00185696
0.00170234
0.00146127
0.00120212
0.0010406
0.000982507
0.00100938
0.00313047
0.00322814
0.00332064
0.00327916
0.00324972
0.00328863
0.00308902
0.00276974
0.00279603
0.00304404
0.00298661
0.00253718
0.0020634
0.00178493
0.00160454
0.00139433
0.00116199
0.000995028
0.000930847
0.000961584
0.00318123
0.00325783
0.00332515
0.0032593
0.00319838
0.00323611
0.00308448
0.0027686
0.0027021
0.00288911
0.00290406
0.00255802
0.00209243
0.00174643
0.00152207
0.00132367
0.00111849
0.000955324
0.000887583
0.000926034
0.00322826
0.00328358
0.00332819
0.00324524
0.00314946
0.00317253
0.00306563
0.00277365
0.00263506
0.00274735
0.00279529
0.0025476
0.00212402
0.00173797
0.00146423
0.00125688
0.00107296
0.000920649
0.000851875
0.00089963
0.00327106
0.00330554
0.00332792
0.00323459
0.00310618
0.0031029
0.0030315
0.00277638
0.00259229
0.00262728
0.0026753
0.00250807
0.00214409
0.00174973
0.00143419
0.00120341
0.00102789
0.000890483
0.000824396
0.000880386
0.00330905
0.00332419
0.00332392
0.0032243
0.00306982
0.00303236
0.00298308
0.00277092
0.00256578
0.00253186
0.00255809
0.0024457
0.00214661
0.00176834
0.00142847
0.00117082
0.000989201
0.000864117
0.000805805
0.000868606
0.00334175
0.00333954
0.00331637
0.00321215
0.00303941
0.00296546
0.00292323
0.00275366
0.00254648
0.00245897
0.00245331
0.00237042
0.00213194
0.00178591
0.00143911
0.00116045
0.000964783
0.000843639
0.000796062
0.000866333
0.00336858
0.00335139
0.00330563
0.00319683
0.00301266
0.00290405
0.00285623
0.00272334
0.00252834
0.00240476
0.00236538
0.00229366
0.00210399
0.00179953
0.00146023
0.00116981
0.000960448
0.000834321
0.000795434
0.000875024
0.00338906
0.00335949
0.00329236
0.00317749
0.00298697
0.00284841
0.00278668
0.0026808
0.00250652
0.00236322
0.00229374
0.00222342
0.00206925
0.00180902
0.0014903
0.00119621
0.000978043
0.000843056
0.000806409
0.000895714
0.00340294
0.0033633
0.0032769
0.00315403
0.00295994
0.00279716
0.00271715
0.00262823
0.00247794
0.00232879
0.00223618
0.00216282
0.00203551
0.00181658
0.0015289
0.00124064
0.00101811
0.000876096
0.000835363
0.000931529
0.00341013
0.00336241
0.00325906
0.00312646
0.00293017
0.00274874
0.00264816
0.00256743
0.00244065
0.00229697
0.00219003
0.00211183
0.00200726
0.00182679
0.00157654
0.0013054
0.00108338
0.000938768
0.00089195
0.000989473
0.00341063
0.00335654
0.00323854
0.00309499
0.00289627
0.0027012
0.00258012
0.00249961
0.0023928
0.00226254
0.00215157
0.00207094
0.00198636
0.00184391
0.00163562
0.00139323
0.00118066
0.00103907
0.000988952
0.00108233
0.00340447
0.00334544
0.00321494
0.0030598
0.00285785
0.00265197
0.00251194
0.00242509
0.00233272
0.00222012
0.00211447
0.00203829
0.00197505
0.0018718
0.00171136
0.00150956
0.00132023
0.00119091
0.00114457
0.00123187
0.00339205
0.00332885
0.00318758
0.00302069
0.00281455
0.00260033
0.00244199
0.00234298
0.00225759
0.00216321
0.00206982
0.0020063
0.00197119
0.00191295
0.00181017
0.00166548
0.00151775
0.00141643
0.00138755
0.00147613
0.0033741
0.00330647
0.00315588
0.002978
0.00276555
0.00254452
0.00236947
0.00225373
0.00216599
0.00208335
0.00200326
0.0019574
0.00196017
0.00196242
0.00193928
0.0018819
0.00180455
0.00175087
0.00175598
0.00186248
0.00335124
0.00327811
0.00311987
0.00293166
0.00271153
0.00248191
0.00229148
0.00215728
0.00205939
0.00197842
0.00190442
0.00186695
0.0018979
0.00197173
0.00207086
0.00217709
0.0022705
0.002348
0.00240775
0.00249459
0.00332341
0.00324431
0.00308035
0.00288207
0.00265213
0.00241197
0.00220522
0.00205136
0.0019394
0.00184996
0.00177399
0.00173061
0.00175742
0.00184505
0.00200605
0.00230156
0.00276847
0.00336436
0.00396144
0.00439741
0.00329005
0.00320644
0.00303728
0.00283031
0.00258863
0.00233334
0.00210915
0.00193297
0.00180444
0.00171002
0.00163307
0.00160533
0.00170402
0.00196516
0.00240604
0.00302204
0.00370359
0.00431225
0.00474442
0.00492915
0.00325301
0.00316539
0.00299011
0.0027748
0.0025233
0.00225418
0.0020032
0.00179817
0.00165177
0.00157198
0.00155596
0.00162887
0.00187437
0.00233247
0.00292708
0.00355871
0.00413851
0.0046004
0.00491034
0.0050273
0.00321468
0.00312218
0.0029403
0.0027135
0.002453
0.00218089
0.00191924
0.00168295
0.00149424
0.00139816
0.00145922
0.00172282
0.0022043
0.00281701
0.00344728
0.00403121
0.00454248
0.0049487
0.00520622
0.00525984
0.0031771
0.00307962
0.00289111
0.0026517
0.00237444
0.00208852
0.0018438
0.00168941
0.00162251
0.00162919
0.00171116
0.00185987
0.00208916
0.00246163
0.00299818
0.00366183
0.00435533
0.00494973
0.00533743
0.00544828
0.00314336
0.00303934
0.0028439
0.00260708
0.0023285
0.00203283
0.00175315
0.00152488
0.00139677
0.00142196
0.00165517
0.00206387
0.0025907
0.00318774
0.00378488
0.00431744
0.00476202
0.00510525
0.00531494
0.00532814
0.00311363
0.00299983
0.0027927
0.00254148
0.0022475
0.00194764
0.00168849
0.00151637
0.00145352
0.00151032
0.00172696
0.00209725
0.00257275
0.00311155
0.00366323
0.00417374
0.00461153
0.00495828
0.00517994
0.00521145
0.0133513
0.00943092
0.00228879
-0.00323041
-0.00463591
-0.00350985
-0.00206983
-0.00107458
-0.000429082
-7.42426e-05
-1.78836e-05
-6.99195e-06
0.000156491
0.000343657
0.000461447
0.00057679
0.000683609
0.000768288
0.000879509
0.00100895
0.00112638
0.00124236
0.00135242
0.00145538
0.00158012
0.00171979
0.00183527
0.00192866
0.00203012
0.00215406
0.00228631
0.00240534
0.00252583
0.00266849
0.00281604
0.0029548
0.00309557
0.00323913
0.00337262
0.0034948
0.0036151
0.00374277
0.00387103
0.00398906
0.00410312
0.00421975
0.00434079
0.00446422
0.00459371
0.00473836
0.00489918
0.00505847
0.0052096
0.00537085
0.00553753
0.00569576
0.0058479
0.0060039
0.00617407
0.00635851
0.00655245
0.0067536
0.00694586
0.00712581
0.00730139
0.0074827
0.00767302
0.00787144
0.00808565
0.00829954
0.00851795
0.00874414
0.00897777
0.00921766
0.0094642
0.00971764
0.00998551
0.0102679
0.0105485
0.0108423
0.0111454
0.011463
0.011786
0.0121098
0.012449
0.0128079
0.0131643
0.0135172
0.0138816
0.0142628
0.0146524
0.01505
0.0154555
0.0158708
0.0162906
0.0167306
0.0171871
0.0176337
0.0181707
0.0187012
0.0126827
0.0092978
0.00238352
-0.00309568
-0.00455389
-0.00346878
-0.00204319
-0.00105524
-0.000414331
-6.21803e-05
-8.13501e-06
7.64763e-07
0.000163113
0.00034951
0.000466489
0.000581274
0.000687685
0.000771872
0.000882705
0.00101188
0.00112904
0.00124478
0.00135464
0.00145736
0.0015819
0.00172147
0.00183685
0.00193011
0.00203144
0.00215528
0.00228748
0.00240645
0.00252686
0.00266947
0.00281699
0.0029557
0.00309642
0.00323995
0.00337342
0.00349556
0.00361582
0.00374345
0.0038717
0.0039897
0.00410373
0.00422034
0.00434135
0.00446476
0.00459421
0.00473883
0.00489963
0.00505892
0.00521002
0.00537125
0.00553791
0.00569613
0.00584826
0.00600424
0.00617439
0.00635881
0.00655274
0.00675388
0.00694614
0.00712607
0.00730164
0.00748293
0.00767324
0.00787165
0.00808584
0.00829973
0.00851813
0.00874431
0.00897793
0.0092178
0.00946434
0.00971777
0.00998563
0.010268
0.0105486
0.0108424
0.0111454
0.0114631
0.0117861
0.0121099
0.0124491
0.0128079
0.0131643
0.0135173
0.0138817
0.0142628
0.0146524
0.01505
0.0154556
0.0158708
0.0162906
0.0167306
0.0171871
0.0176337
0.0181707
0.0187013
0.0120433
0.00919712
0.00260469
-0.00282299
-0.00440347
-0.0034125
-0.00201765
-0.00103632
-0.00039846
-4.90407e-05
2.8917e-06
1.01673e-05
0.000171163
0.000356163
0.000471841
0.000585837
0.000691743
0.000775417
0.000885854
0.00101473
0.00113158
0.0012471
0.00135677
0.00145926
0.0015836
0.00172306
0.00183832
0.00193143
0.00203264
0.00215639
0.00228854
0.00240742
0.00252775
0.00267033
0.00281782
0.00295649
0.00309717
0.00324069
0.00337412
0.00349623
0.00361645
0.00374406
0.00387229
0.00399026
0.00410427
0.00422084
0.00434183
0.00446522
0.00459464
0.00473924
0.00490003
0.0050593
0.00521038
0.00537159
0.00553825
0.00569646
0.00584857
0.00600452
0.00617466
0.00635907
0.00655299
0.00675413
0.00694638
0.00712631
0.00730185
0.00748313
0.00767343
0.00787183
0.00808602
0.0082999
0.00851828
0.00874446
0.00897806
0.00921793
0.00946446
0.00971788
0.00998573
0.0102681
0.0105487
0.0108425
0.0111455
0.0114632
0.0117861
0.0121099
0.0124491
0.012808
0.0131644
0.0135173
0.0138817
0.0142628
0.0146524
0.0150501
0.0154556
0.0158708
0.0162906
0.0167306
0.0171871
0.0176337
0.0181707
0.0187015
0.011454
0.00910015
0.00287979
-0.00247781
-0.00419922
-0.00333618
-0.00198448
-0.00101032
-0.000376438
-3.21692e-05
1.6883e-05
2.30038e-05
0.000182461
0.000365339
0.000479156
0.000591988
0.000697172
0.000780234
0.000890091
0.00101839
0.00113475
0.00124998
0.00135947
0.0014617
0.00158576
0.00172499
0.00184006
0.00193303
0.00203409
0.00215769
0.00228971
0.00240849
0.00252873
0.00267125
0.00281871
0.00295732
0.00309797
0.00324146
0.00337486
0.00349693
0.00361711
0.00374469
0.0038729
0.00399084
0.00410482
0.00422137
0.00434234
0.0044657
0.00459509
0.00473966
0.00490044
0.00505971
0.00521076
0.00537196
0.00553861
0.0056968
0.00584888
0.00600482
0.00617494
0.00635934
0.00655325
0.00675439
0.00694664
0.00712655
0.00730207
0.00748334
0.00767363
0.00787201
0.0080862
0.00830007
0.00851844
0.00874461
0.00897821
0.00921807
0.00946458
0.009718
0.00998584
0.0102682
0.0105488
0.0108425
0.0111456
0.0114633
0.0117862
0.01211
0.0124492
0.012808
0.0131644
0.0135173
0.0138817
0.0142629
0.0146525
0.0150501
0.0154556
0.0158709
0.0162906
0.0167306
0.0171871
0.0176337
0.0181707
0.0187018
0.0108737
0.00896333
0.00315428
-0.00211393
-0.00397607
-0.00325179
-0.00194829
-0.000979503
-0.000348911
-1.13007e-05
3.45523e-05
4.02033e-05
0.000197883
0.000377819
0.000489172
0.000600402
0.000704713
0.000787212
0.000896296
0.00102359
0.00113909
0.00125389
0.00136322
0.00146522
0.00158882
0.00172758
0.0018424
0.00193526
0.00203614
0.00215944
0.00229121
0.00240983
0.00252994
0.00267236
0.00281974
0.00295829
0.00309888
0.00324232
0.00337567
0.00349772
0.00361788
0.00374543
0.0038736
0.0039915
0.00410544
0.00422197
0.00434291
0.00446625
0.00459562
0.00474015
0.00490091
0.00506016
0.00521119
0.00537237
0.00553901
0.00569717
0.00584923
0.00600515
0.00617525
0.00635964
0.00655353
0.00675468
0.00694694
0.00712683
0.00730233
0.00748357
0.00767385
0.00787222
0.00808641
0.00830027
0.00851863
0.00874478
0.00897837
0.00921822
0.00946473
0.00971813
0.00998596
0.0102683
0.0105489
0.0108426
0.0111457
0.0114633
0.0117863
0.0121101
0.0124493
0.0128081
0.0131645
0.0135174
0.0138818
0.0142629
0.0146525
0.0150501
0.0154556
0.0158709
0.0162907
0.0167306
0.0171871
0.0176337
0.0181706
0.0187022
0.0102954
0.00877827
0.0034189
-0.0017405
-0.00374091
-0.00316267
-0.00191175
-0.000946989
-0.000318274
1.23207e-05
5.48832e-05
6.04962e-05
0.000216278
0.00039285
0.000501449
0.000610836
0.00071433
0.00079653
0.000904786
0.0010307
0.00114496
0.00125907
0.00136824
0.00147005
0.001593
0.00173099
0.00184549
0.00193838
0.00203909
0.00216191
0.00229322
0.0024116
0.00253152
0.00267374
0.00282096
0.00295943
0.00309996
0.00324329
0.00337658
0.00349862
0.00361878
0.00374629
0.00387442
0.00399228
0.00410618
0.00422266
0.00434357
0.0044669
0.00459625
0.00474074
0.00490145
0.00506069
0.0052117
0.00537286
0.00553947
0.00569759
0.00584963
0.00600554
0.00617562
0.00635998
0.00655386
0.00675501
0.00694729
0.00712716
0.00730263
0.00748384
0.00767411
0.00787247
0.00808665
0.00830051
0.00851886
0.008745
0.00897857
0.00921841
0.00946491
0.0097183
0.00998612
0.0102684
0.010549
0.0108428
0.0111458
0.0114635
0.0117864
0.0121102
0.0124493
0.0128082
0.0131646
0.0135175
0.0138818
0.014263
0.0146526
0.0150502
0.0154557
0.0158709
0.0162907
0.0167307
0.0171871
0.0176337
0.0181706
0.0187026
0.0097275
0.00855533
0.00367475
-0.00135681
-0.0034927
-0.00306795
-0.00187517
-0.00091412
-0.000285543
3.82566e-05
7.71061e-05
8.2507e-05
0.000236235
0.000409251
0.000514971
0.000622448
0.000725333
0.000807632
0.000915215
0.00103962
0.00115238
0.00126557
0.00137454
0.00147622
0.00159833
0.00173524
0.00184936
0.00194245
0.00204306
0.00216524
0.00229591
0.00241397
0.00253365
0.0026755
0.00282243
0.0029608
0.00310123
0.00324439
0.00337757
0.00349963
0.00361982
0.00374729
0.00387536
0.00399319
0.00410707
0.00422349
0.00434436
0.00446769
0.00459703
0.00474145
0.00490208
0.0050613
0.00521233
0.00537347
0.00554
0.00569806
0.00585007
0.00600598
0.00617604
0.00636037
0.00655423
0.0067554
0.0069477
0.00712756
0.00730299
0.00748417
0.00767443
0.00787278
0.00808696
0.00830082
0.00851915
0.00874527
0.00897882
0.00921865
0.00946513
0.00971853
0.00998632
0.0102686
0.0105492
0.0108429
0.011146
0.0114636
0.0117865
0.0121103
0.0124495
0.0128083
0.0131647
0.0135176
0.0138819
0.014263
0.0146526
0.0150502
0.0154557
0.015871
0.0162907
0.0167307
0.0171872
0.0176337
0.0181705
0.0187032
0.00918294
0.00830252
0.00391886
-0.000964261
-0.00323077
-0.00296695
-0.00183894
-0.000881782
-0.000251153
6.6445e-05
0.000100937
0.000105647
0.000257171
0.000426515
0.000529239
0.000634729
0.000737105
0.000819772
0.00092688
0.00104982
0.00116103
0.0012732
0.00138195
0.0014835
0.00160461
0.00174019
0.00185389
0.00194734
0.00204796
0.00216941
0.00229932
0.00241704
0.00253642
0.00267774
0.00282423
0.00296243
0.00310272
0.00324563
0.00337866
0.00350076
0.00362101
0.00374842
0.00387642
0.00399426
0.00410816
0.00422453
0.00434533
0.00446867
0.00459801
0.00474232
0.00490281
0.00506201
0.00521308
0.00537422
0.00554066
0.00569861
0.00585059
0.00600649
0.00617653
0.00636082
0.00655465
0.00675586
0.0069482
0.00712805
0.00730343
0.00748458
0.00767482
0.00787317
0.00808735
0.00830121
0.00851953
0.00874563
0.00897914
0.00921895
0.00946544
0.00971883
0.00998659
0.0102689
0.0105494
0.0108432
0.0111462
0.0114638
0.0117867
0.0121104
0.0124496
0.0128084
0.0131648
0.0135177
0.013882
0.0142631
0.0146527
0.0150503
0.0154558
0.015871
0.0162908
0.0167307
0.0171872
0.0176337
0.0181703
0.0187039
0.00867163
0.00802395
0.00414356
-0.000566867
-0.00295505
-0.00285868
-0.0018028
-0.000850335
-0.000215325
9.69146e-05
0.000126381
0.000129818
0.000278979
0.000444579
0.000544213
0.000647616
0.000749433
0.000832522
0.000939252
0.00106081
0.00117051
0.00128166
0.00139018
0.00149159
0.0016116
0.0017457
0.00185893
0.00195283
0.00205354
0.00217425
0.00230335
0.00242075
0.00253983
0.00268049
0.0028264
0.00296437
0.00310443
0.00324701
0.00337984
0.00350201
0.00362234
0.00374965
0.00387755
0.00399543
0.00410942
0.00422578
0.00434653
0.00446989
0.00459923
0.00474337
0.00490364
0.0050628
0.00521397
0.00537512
0.00554145
0.00569929
0.00585123
0.00600711
0.00617709
0.00636129
0.00655509
0.00675636
0.00694879
0.00712866
0.00730399
0.00748509
0.00767531
0.00787365
0.00808784
0.00830171
0.00852003
0.0087461
0.00897957
0.00921936
0.00946585
0.00971924
0.00998695
0.0102692
0.0105497
0.0108435
0.0111465
0.011464
0.011787
0.0121107
0.0124498
0.0128086
0.013165
0.0135178
0.0138822
0.0142633
0.0146528
0.0150504
0.0154559
0.0158711
0.0162909
0.0167308
0.0171872
0.0176337
0.0181702
0.0187046
0.00820015
0.00772348
0.00434065
-0.00016871
-0.00266446
-0.00274074
-0.00176555
-0.000819915
-0.000178463
0.000129623
0.000153567
0.000155094
0.000301689
0.000463501
0.000559986
0.000661203
0.000762347
0.000845786
0.000952114
0.0010723
0.00118055
0.00129069
0.00139898
0.00150026
0.00161912
0.00175163
0.00186436
0.00195875
0.0020596
0.00217956
0.00230785
0.00242498
0.00254376
0.00268369
0.00282893
0.00296658
0.00310635
0.00324851
0.00338112
0.00350339
0.0036238
0.00375097
0.00387871
0.00399665
0.00411078
0.0042272
0.00434796
0.0044714
0.00460075
0.00474466
0.0049046
0.00506366
0.00521496
0.00537614
0.00554235
0.0057001
0.00585204
0.00600791
0.00617777
0.00636181
0.00655553
0.00675686
0.00694944
0.00712937
0.00730467
0.00748572
0.00767592
0.00787425
0.00808845
0.00830234
0.00852067
0.00874671
0.00898013
0.00921989
0.00946639
0.00971979
0.00998744
0.0102696
0.0105501
0.0108439
0.0111468
0.0114644
0.0117873
0.0121109
0.0124501
0.0128089
0.0131652
0.013518
0.0138824
0.0142635
0.014653
0.0150506
0.0154561
0.0158713
0.016291
0.0167309
0.0171873
0.0176337
0.01817
0.0187054
0.00777237
0.00740656
0.00450348
0.000226944
-0.00235728
-0.0026103
-0.00172601
-0.000790989
-0.000141332
0.000164407
0.000182672
0.000181641
0.000325395
0.000483362
0.000576654
0.000675599
0.000775955
0.000859629
0.000965455
0.00108421
0.00119099
0.00130014
0.00140822
0.00150939
0.00162708
0.00175794
0.00187011
0.00196501
0.00206601
0.00218522
0.0023127
0.00242957
0.00254808
0.00268725
0.00283176
0.00296904
0.00310846
0.00325012
0.00338248
0.00350487
0.0036254
0.0037524
0.0038799
0.00399787
0.00411218
0.00422871
0.00434958
0.00447318
0.0046026
0.00474622
0.00490571
0.00506461
0.00521601
0.00537722
0.0055433
0.005701
0.00585303
0.00600894
0.00617864
0.00636241
0.00655594
0.00675731
0.00695009
0.00713017
0.00730549
0.00748649
0.00767665
0.00787498
0.00808918
0.0083031