/*--------------------------------*- C++ -*----------------------------------*\
| =========                 |                                                 |
| \\      /  F ield         | OpenFOAM: The Open Source CFD Toolbox           |
|  \\    /   O peration     | Version:  2106                                  |
|   \\  /    A nd           | Website:  www.openfoam.com                      |
|    \\/     M anipulation  |                                                 |
\*---------------------------------------------------------------------------*/
FoamFile
{
    version     2.0;
    format      ascii;
    arch        "LSB;label=32;scalar=64";
    class       surfaceScalarField;
    location    "0.975";
    object      phi;
}
// * * * * * * * * * * * * * * * * * * * * * * * * * * * * * * * * * * * * * //

dimensions      [0 3 -1 0 0 0 0];

oriented        oriented;

internalField   nonuniform List<scalar> 
19000
(
1.1651e-06
-9.17128e-07
1.16211e-06
6.85818e-07
1.19587e-06
-6.75108e-08
1.19923e-06
-1.13199e-08
1.21136e-06
5.11015e-08
1.17648e-06
3.5256e-07
1.16947e-06
-1.34728e-07
1.18333e-06
7.27076e-08
1.19484e-06
-2.47548e-07
1.20764e-06
-3.64986e-07
1.21693e-06
-2.66353e-07
1.21379e-06
-1.05821e-07
1.22384e-06
2.14357e-07
1.19712e-06
-6.71403e-08
1.20139e-06
3.35959e-07
1.16902e-06
6.50863e-08
1.18002e-06
3.34839e-07
1.155e-06
7.71985e-08
1.16241e-06
2.14096e-07
1.19211e-07
1.12662e-06
1.22487e-06
-9.17736e-07
1.22393e-06
6.86759e-07
1.25694e-06
-1.00522e-07
1.26107e-06
-1.54488e-08
1.2708e-06
4.13663e-08
1.24231e-06
3.81057e-07
1.23103e-06
-1.23456e-07
1.24662e-06
5.71249e-08
1.25472e-06
-2.55648e-07
1.26709e-06
-3.77357e-07
1.27517e-06
-2.74433e-07
1.27605e-06
-1.06705e-07
1.27912e-06
2.11288e-07
1.26088e-06
-4.89036e-08
1.2512e-06
3.4564e-07
1.23628e-06
8.0011e-08
1.22473e-06
3.46387e-07
1.22585e-06
7.60736e-08
1.20332e-06
2.36632e-07
1.10111e-07
1.21242e-06
1.28557e-06
-9.20525e-07
1.29378e-06
6.78556e-07
1.31958e-06
-1.26329e-07
1.32808e-06
-2.39472e-08
1.33302e-06
3.64251e-08
1.31411e-06
3.99966e-07
1.29599e-06
-1.05328e-07
1.31185e-06
4.12616e-08
1.31367e-06
-2.57466e-07
1.32707e-06
-3.90757e-07
1.3329e-06
-2.80269e-07
1.34044e-06
-1.14246e-07
1.33922e-06
2.12509e-07
1.32822e-06
-3.78993e-08
1.31366e-06
3.60202e-07
1.30474e-06
8.89282e-08
1.29319e-06
3.57941e-07
1.29269e-06
7.65748e-08
1.28214e-06
2.47178e-07
1.19564e-07
1.27269e-06
1.34745e-06
-9.23875e-07
1.36534e-06
6.60668e-07
1.38108e-06
-1.42069e-07
1.3943e-06
-3.71661e-08
1.39586e-06
3.48648e-08
1.38443e-06
4.11394e-07
1.36191e-06
-8.28096e-08
1.3742e-06
2.89727e-08
1.37082e-06
-2.54084e-07
1.38296e-06
-4.02897e-07
1.38978e-06
-2.87093e-07
1.40185e-06
-1.26316e-07
1.40255e-06
2.11817e-07
1.39442e-06
-2.97755e-08
1.38393e-06
3.70696e-07
1.37415e-06
9.87072e-08
1.36837e-06
3.63724e-07
1.36166e-06
8.32813e-08
1.35847e-06
2.50364e-07
1.36082e-07
1.34196e-06
1.41072e-06
-9.26244e-07
1.4354e-06
6.35991e-07
1.441e-06
-1.47666e-07
1.45662e-06
-5.27912e-08
1.45749e-06
3.39994e-08
1.45011e-06
4.18776e-07
1.42764e-06
-6.03455e-08
1.43435e-06
2.22614e-08
1.42797e-06
-2.47697e-07
1.43662e-06
-4.11553e-07
1.44591e-06
-2.96377e-07
1.4609e-06
-1.41308e-07
1.46554e-06
2.07178e-07
1.4593e-06
-2.3543e-08
1.45424e-06
3.75758e-07
1.44396e-06
1.08988e-07
1.44151e-06
3.66174e-07
1.43075e-06
9.40424e-08
1.42929e-06
2.51824e-07
1.55101e-07
1.41027e-06
1.4761e-06
-9.26664e-07
1.50313e-06
6.08954e-07
1.50113e-06
-1.45665e-07
1.51578e-06
-6.744e-08
1.51769e-06
3.20891e-08
1.51239e-06
4.24073e-07
1.49342e-06
-4.13672e-08
1.49563e-06
2.00477e-08
1.4878e-06
-2.39872e-07
1.49242e-06
-4.16171e-07
1.50263e-06
-3.06581e-07
1.51934e-06
-1.58022e-07
1.52718e-06
1.99341e-07
1.52304e-06
-1.94086e-08
1.5225e-06
3.763e-07
1.51284e-06
1.18654e-07
1.51247e-06
3.66539e-07
1.49882e-06
1.07698e-07
1.49819e-06
2.52452e-07
1.75604e-07
1.47769e-06
1.54432e-06
-9.24769e-07
1.56985e-06
5.83431e-07
1.56386e-06
-1.39681e-07
1.57492e-06
-7.85034e-08
1.5778e-06
2.92127e-08
1.57461e-06
4.27268e-07
1.56042e-06
-2.71799e-08
1.56078e-06
1.96816e-08
1.55255e-06
-2.31632e-07
1.55356e-06
-4.17186e-07
1.56214e-06
-3.15159e-07
1.57876e-06
-1.74648e-07
1.58838e-06
1.89721e-07
1.58609e-06
-1.7114e-08
1.5891e-06
3.73294e-07
1.58032e-06
1.27433e-07
1.58198e-06
3.64878e-07
1.56623e-06
1.23448e-07
1.5668e-06
2.51878e-07
1.9643e-07
1.54597e-06
1.61592e-06
-9.20559e-07
1.63781e-06
5.6154e-07
1.63088e-06
-1.32753e-07
1.63738e-06
-8.50032e-08
1.64009e-06
2.65072e-08
1.63981e-06
4.27544e-07
1.6302e-06
-1.75675e-08
1.63097e-06
1.89095e-08
1.62316e-06
-2.23823e-07
1.62126e-06
-4.15285e-07
1.62627e-06
-3.20169e-07
1.64071e-06
-1.89081e-07
1.65067e-06
1.79758e-07
1.64939e-06
-1.58359e-08
1.65505e-06
3.6763e-07
1.64693e-06
1.35562e-07
1.65087e-06
3.60937e-07
1.63399e-06
1.40328e-07
1.63623e-06
2.49633e-07
2.16206e-07
1.61646e-06
1.6912e-06
-9.14184e-07
1.70912e-06
5.43617e-07
1.70295e-06
-1.26585e-07
1.70535e-06
-8.73966e-08
1.70687e-06
2.49835e-08
1.70998e-06
4.24434e-07
1.70404e-06
-1.16268e-08
1.70626e-06
1.66853e-08
1.69944e-06
-2.16998e-07
1.69535e-06
-4.112e-07
1.69596e-06
-3.20781e-07
1.70659e-06
-1.99704e-07
1.71573e-06
1.70612e-07
1.71444e-06
-1.45405e-08
1.72199e-06
3.60075e-07
1.71419e-06
1.4337e-07
1.72064e-06
3.54486e-07
1.70363e-06
1.57336e-07
1.70779e-06
2.45468e-07
2.33741e-07
1.69026e-06
1.77039e-06
-9.05852e-07
1.78512e-06
5.28884e-07
1.78021e-06
-1.21667e-07
1.77969e-06
-8.68837e-08
1.77971e-06
2.49671e-08
1.786e-06
4.18146e-07
1.7826e-06
-8.23396e-09
1.78633e-06
1.29616e-08
1.78059e-06
-2.11265e-07
1.77502e-06
-4.05627e-07
1.77142e-06
-3.17183e-07
1.77755e-06
-2.0583e-07
1.78526e-06
1.62905e-07
1.78309e-06
-1.23704e-08
1.79197e-06
3.51187e-07
1.78425e-06
1.51093e-07
1.79326e-06
3.45476e-07
1.77693e-06
1.73667e-07
1.78284e-06
2.39553e-07
2.48206e-07
1.76838e-06
1.8537e-06
-8.95808e-07
1.8664e-06
5.16191e-07
1.86251e-06
-1.17775e-07
1.86039e-06
-8.47694e-08
1.85914e-06
2.62223e-08
1.86799e-06
4.09294e-07
1.86604e-06
-6.28747e-09
1.87083e-06
8.17187e-09
1.86593e-06
-2.06359e-07
1.85943e-06
-3.99135e-07
1.85247e-06
-3.1022e-07
1.85433e-06
-2.07694e-07
1.86057e-06
1.56667e-07
1.85707e-06
-8.86444e-09
1.86698e-06
3.41269e-07
1.8592e-06
1.58873e-07
1.87056e-06
3.34117e-07
1.85541e-06
1.88825e-07
1.86246e-06
2.32504e-07
2.59145e-07
1.85152e-06
1.94134e-06
-8.84309e-07
1.95303e-06
5.04502e-07
1.94967e-06
-1.14419e-07
1.94702e-06
-8.21129e-08
1.94493e-06
2.83138e-08
1.95569e-06
3.98532e-07
1.95428e-06
-4.87553e-09
1.95962e-06
2.82589e-09
1.95512e-06
-2.01853e-07
1.94807e-06
-3.92094e-07
1.93882e-06
-3.00961e-07
1.93726e-06
-2.06134e-07
1.94245e-06
1.51471e-07
1.93755e-06
-3.95775e-09
1.9484e-06
3.30413e-07
1.94049e-06
1.66784e-07
1.95372e-06
3.20885e-07
1.93999e-06
2.02558e-07
1.94725e-06
2.25247e-07
2.66384e-07
1.94001e-06
2.03347e-06
-8.71588e-07
2.04491e-06
4.93063e-07
2.04159e-06
-1.11107e-07
2.03912e-06
-7.96362e-08
2.03656e-06
3.08687e-08
2.04873e-06
3.86363e-07
2.04723e-06
-3.36985e-09
2.05274e-06
-2.68898e-09
2.04823e-06
-1.9734e-07
2.04082e-06
-3.84687e-07
2.03024e-06
-2.90378e-07
2.02627e-06
-2.02166e-07
2.03106e-06
1.46685e-07
2.02494e-06
2.15962e-09
2.03674e-06
3.18607e-07
2.0287e-06
1.74826e-07
2.04314e-06
3.06448e-07
2.03097e-06
2.1473e-07
2.03742e-06
2.18793e-07
2.69944e-07
2.03386e-06
2.13023e-06
-8.57821e-07
2.14191e-06
4.81382e-07
2.13825e-06
-1.07444e-07
2.13638e-06
-7.77661e-08
2.13358e-06
3.36723e-08
2.14684e-06
3.73101e-07
2.1449e-06
-1.42733e-09
2.15036e-06
-8.15449e-09
2.14556e-06
-1.92539e-07
2.13783e-06
-3.76955e-07
2.12665e-06
-2.792e-07
2.12114e-06
-1.96651e-07
2.12612e-06
1.41704e-07
2.11907e-06
9.20974e-09
2.13183e-06
3.05849e-07
2.12375e-06
1.82908e-07
2.13864e-06
2.91554e-07
2.12816e-06
2.2521e-07
2.13301e-06
2.13942e-07
2.70067e-07
2.13289e-06
2.23179e-06
-8.43119e-07
2.24402e-06
4.69144e-07
2.23973e-06
-1.03153e-07
2.23869e-06
-7.67173e-08
2.2357e-06
3.66593e-08
2.24987e-06
3.58925e-07
2.24737e-06
1.07307e-09
2.25271e-06
-1.34889e-08
2.24749e-06
-1.87316e-07
2.2394e-06
-3.68865e-07
2.22811e-06
-2.67912e-07
2.22161e-06
-1.90148e-07
2.22722e-06
1.36092e-07
2.21949e-06
1.69329e-08
2.23311e-06
2.92232e-07
2.22519e-06
1.90827e-07
2.2398e-06
2.76942e-07
2.23119e-06
2.33823e-07
2.23413e-06
2.11001e-07
2.67338e-07
2.23686e-06
2.33829e-06
-8.27538e-07
2.3513e-06
4.56137e-07
2.3462e-06
-9.80551e-08
2.34606e-06
-7.65703e-08
2.34285e-06
3.98647e-08
2.35784e-06
3.43938e-07
2.3548e-06
4.11191e-09
2.36e-06
-1.86866e-08
2.35436e-06
-1.81676e-07
2.34584e-06
-3.6035e-07
2.33475e-06
-2.56821e-07
2.32752e-06
-1.82919e-07
2.33398e-06
1.29637e-07
2.3258e-06
2.51105e-08
2.34004e-06
2.77988e-07
2.33258e-06
1.98288e-07
2.34625e-06
2.6327e-07
2.33969e-06
2.40386e-07
2.34077e-06
2.09925e-07
2.62472e-07
2.34563e-06
2.44996e-06
-8.11098e-07
2.46388e-06
4.42209e-07
2.45787e-06
-9.20425e-08
2.45863e-06
-7.73323e-08
2.45513e-06
4.33701e-08
2.47084e-06
3.28221e-07
2.46736e-06
7.5967e-09
2.47243e-06
-2.37609e-08
2.46648e-06
-1.7572e-07
2.45746e-06
-3.51332e-07
2.44676e-06
-2.46125e-07
2.43888e-06
-1.75032e-07
2.44619e-06
1.22327e-07
2.43776e-06
3.35381e-08
2.45228e-06
2.63469e-07
2.4456e-06
2.04967e-07
2.45784e-06
2.5103e-07
2.45342e-06
2.44808e-07
2.45291e-06
2.1043e-07
2.56185e-07
2.4592e-06
2.56699e-06
-7.93798e-07
2.58195e-06
4.2725e-07
2.57497e-06
-8.50581e-08
2.57661e-06
-7.8979e-08
2.57273e-06
4.7258e-08
2.58909e-06
3.11854e-07
2.58529e-06
1.14032e-08
2.59023e-06
-2.87014e-08
2.58412e-06
-1.69612e-07
2.57452e-06
-3.41728e-07
2.56435e-06
-2.35958e-07
2.5558e-06
-1.66485e-07
2.56382e-06
1.14307e-07
2.55536e-06
4.19983e-08
2.56973e-06
2.49096e-07
2.56414e-06
2.10562e-07
2.57469e-06
2.40483e-07
2.57231e-06
2.47186e-07
2.57067e-06
2.12064e-07
2.49149e-07
2.57771e-06
2.68966e-06
-7.75628e-07
2.70572e-06
4.11186e-07
2.69774e-06
-7.7076e-08
2.70024e-06
-8.14758e-08
2.69591e-06
5.15827e-08
2.71284e-06
2.94932e-07
2.70885e-06
1.53931e-08
2.7136e-06
-3.34512e-08
2.70753e-06
-1.63544e-07
2.69725e-06
-3.31453e-07
2.68769e-06
-2.26399e-07
2.67851e-06
-1.57306e-07
2.68699e-06
1.05832e-07
2.67874e-06
5.0243e-08
2.69255e-06
2.3529e-07
2.68825e-06
2.14859e-07
2.69706e-06
2.31671e-07
2.69648e-06
2.47769e-07
2.69424e-06
2.1431e-07
2.41936e-07
2.70145e-06
2.81822e-06
-7.56577e-07
2.83543e-06
3.93969e-07
2.82645e-06
-6.80921e-08
2.82976e-06
-8.4784e-08
2.82498e-06
5.63564e-08
2.84235e-06
2.77569e-07
2.83833e-06
1.94132e-08
2.84278e-06
-3.79002e-08
2.83695e-06
-1.5772e-07
2.82592e-06
-3.20424e-07
2.81701e-06
-2.17482e-07
2.80729e-06
-1.47593e-07
2.8159e-06
9.72248e-08
2.80814e-06
5.80072e-08
2.82101e-06
2.22416e-07
2.8181e-06
2.17771e-07
2.82531e-06
2.24459e-07
2.82621e-06
2.46869e-07
2.82381e-06
2.16708e-07
2.34962e-07
2.83079e-06
2.95296e-06
-7.36638e-07
2.97135e-06
3.75579e-07
2.96137e-06
-5.81195e-08
2.96545e-06
-8.8857e-08
2.96026e-06
6.15458e-08
2.97792e-06
2.59904e-07
2.97405e-06
2.32902e-08
2.97804e-06
-4.1893e-08
2.97265e-06
-1.52333e-07
2.9608e-06
-3.08574e-07
2.9525e-06
-2.09185e-07
2.94244e-06
-1.37529e-07
2.95084e-06
8.88273e-08
2.9438e-06
6.50472e-08
2.9555e-06
2.10715e-07
2.95391e-06
2.19362e-07
2.95976e-06
2.18601e-07
2.96187e-06
2.44761e-07
2.95965e-06
2.18934e-07
2.28472e-07
2.96614e-06
3.09417e-06
-7.15806e-07
3.11374e-06
3.56013e-07
3.10281e-06
-4.71893e-08
3.10759e-06
-9.36333e-08
3.10206e-06
6.70757e-08
3.11986e-06
2.42104e-07
3.11632e-06
2.68299e-08
3.11967e-06
-4.52459e-08
3.11489e-06
-1.47551e-07
3.1022e-06
-2.95883e-07
3.09443e-06
-2.01417e-07
3.08427e-06
-1.27365e-07
3.09211e-06
8.09828e-08
3.08598e-06
7.11722e-08
3.09642e-06
2.00284e-07
3.09596e-06
2.19818e-07
3.10073e-06
2.1383e-07
3.10385e-06
2.41639e-07
3.10201e-06
2.2078e-07
2.22585e-07
3.10789e-06
3.24219e-06
-6.94086e-07
3.26291e-06
3.35289e-07
3.25108e-06
-3.53527e-08
3.25647e-06
-9.903e-08
3.25072e-06
7.28338e-08
3.26846e-06
2.2436e-07
3.26547e-06
2.98143e-08
3.26799e-06
-4.7762e-08
3.26393e-06
-1.43488e-07
3.25046e-06
-2.82412e-07
3.24305e-06
-1.94015e-07
3.23307e-06
-1.17386e-07
3.24007e-06
7.39849e-08
3.23495e-06
7.62978e-08
3.24415e-06
1.91077e-07
3.24462e-06
2.19353e-07
3.2485e-06
2.09945e-07
3.25251e-06
2.37638e-07
3.25121e-06
2.22077e-07
2.1736e-07
3.25643e-06
3.39733e-06
-6.71488e-07
3.41918e-06
3.13442e-07
3.40651e-06
-2.26851e-08
3.41242e-06
-1.04938e-07
3.40658e-06
7.86747e-08
3.42404e-06
2.06896e-07
3.42185e-06
3.20096e-08
3.42335e-06
-4.92584e-08
3.42005e-06
-1.40189e-07
3.40595e-06
-2.68311e-07
3.39869e-06
-1.86755e-07
3.38917e-06
-1.07867e-07
3.39511e-06
6.80456e-08
3.39094e-06
8.04635e-08
3.39907e-06
1.82951e-07
3.40027e-06
2.18155e-07
3.40338e-06
2.06827e-07
3.40817e-06
2.32852e-07
3.40758e-06
2.22664e-07
2.12825e-07
3.41212e-06
3.55996e-06
-6.48033e-07
3.58287e-06
2.90526e-07
3.56948e-06
-9.2901e-09
3.57576e-06
-1.11219e-07
3.57001e-06
8.44237e-08
3.58694e-06
1.89961e-07
3.58578e-06
3.31776e-08
3.58611e-06
-4.95908e-08
3.58353e-06
-1.3761e-07
3.56904e-06
-2.53819e-07
3.56167e-06
-1.79382e-07
3.55282e-06
-9.90207e-08
3.55763e-06
6.3231e-08
3.55424e-06
8.38556e-08
3.56147e-06
1.75721e-07
3.5633e-06
2.16332e-07
3.56572e-06
2.04402e-07
3.57115e-06
2.27418e-07
3.57146e-06
2.22357e-07
2.08973e-07
3.57531e-06
3.73042e-06
-6.23749e-07
3.75433e-06
2.66616e-07
3.74034e-06
4.69848e-09
3.74683e-06
-1.17706e-07
3.74137e-06
8.98829e-08
3.75752e-06
1.73814e-07
3.75758e-06
3.31147e-08
3.75668e-06
-4.86941e-08
3.7547e-06
-1.35628e-07
3.74011e-06
-2.39228e-07
3.73237e-06
-1.71644e-07
3.72431e-06
-9.09568e-08
3.72807e-06
5.94681e-08
3.72518e-06
8.67482e-08
3.73171e-06
1.69193e-07
3.7341e-06
2.13942e-07
3.73591e-06
2.02583e-07
3.74179e-06
2.21538e-07
3.74318e-06
2.20972e-07
2.05736e-07
3.74642e-06
3.90911e-06
-5.98674e-07
3.93392e-06
2.4181e-07
3.9195e-06
1.91132e-08
3.926e-06
-1.24203e-07
3.92105e-06
9.48357e-08
3.93614e-06
1.58724e-07
3.93758e-06
3.16734e-08
3.93548e-06
-4.65991e-08
3.9339e-06
-1.34047e-07
3.91953e-06
-2.2485e-07
3.91122e-06
-1.63334e-07
3.90393e-06
-8.36688e-08
3.90682e-06
5.65747e-08
3.90413e-06
8.94385e-08
3.91009e-06
1.63237e-07
3.91304e-06
2.10991e-07
3.91441e-06
2.01209e-07
3.92045e-06
2.15501e-07
3.92304e-06
2.18384e-07
2.02941e-07
3.92583e-06
4.09643e-06
-5.72858e-07
4.12201e-06
2.1623e-07
4.10737e-06
3.37579e-08
4.11366e-06
-1.30496e-07
4.10944e-06
9.90588e-08
4.12324e-06
1.44924e-07
4.12612e-06
2.87984e-08
4.12295e-06
-4.34298e-08
4.12151e-06
-1.32615e-07
4.10765e-06
-2.10987e-07
4.09864e-06
-1.5432e-07
4.09202e-06
-7.70464e-08
4.09425e-06
5.43409e-08
4.09154e-06
9.21489e-08
4.09694e-06
1.57839e-07
4.10054e-06
2.0739e-07
4.10165e-06
2.00101e-07
4.10754e-06
2.09606e-07
4.11133e-06
2.14591e-07
2.00313e-07
4.11396e-06
4.29281e-06
-5.46365e-07
4.31902e-06
1.90022e-07
4.30437e-06
4.84071e-08
4.31022e-06
-1.36353e-07
4.30695e-06
1.02332e-07
4.31928e-06
1.32595e-07
4.32355e-06
2.45311e-08
4.31951e-06
-3.93877e-08
4.31794e-06
-1.31047e-07
4.30486e-06
-1.97912e-07
4.29507e-06
-1.44525e-07
4.28895e-06
-7.09313e-08
4.29069e-06
5.26022e-08
4.28783e-06
9.50097e-08
4.29265e-06
1.53017e-07
4.29699e-06
2.03051e-07
4.29807e-06
1.99021e-07
4.30356e-06
2.04118e-07
4.3084e-06
2.09751e-07
1.97516e-07
4.3112e-06
4.49868e-06
-5.19267e-07
4.52534e-06
1.63357e-07
4.51094e-06
6.28096e-08
4.51613e-06
-1.4154e-07
4.514e-06
1.04456e-07
4.52473e-06
1.21863e-07
4.53027e-06
1.89918e-08
4.52561e-06
-3.4726e-08
4.52361e-06
-1.29042e-07
4.51155e-06
-1.85852e-07
4.50094e-06
-1.33917e-07
4.49512e-06
-6.51097e-08
4.49647e-06
5.12468e-08
4.49347e-06
9.80141e-08
4.49764e-06
1.4884e-07
4.50279e-06
1.97904e-07
4.50411e-06
1.97698e-07
4.50903e-06
1.99201e-07
4.51462e-06
2.04168e-07
1.94246e-07
4.51788e-06
4.7145e-06
-4.91652e-07
4.74143e-06
1.36428e-07
4.72754e-06
7.67022e-08
4.73183e-06
-1.45838e-07
4.73101e-06
1.05278e-07
4.74008e-06
1.12799e-07
4.74671e-06
1.23597e-08
4.74172e-06
-2.97344e-08
4.73896e-06
-1.26287e-07
4.7281e-06
-1.74987e-07
4.7167e-06
-1.22519e-07
4.71089e-06
-5.93044e-08
4.71207e-06
5.00718e-08
4.70895e-06
1.01136e-07
4.71242e-06
1.45368e-07
4.71836e-06
1.91962e-07
4.7202e-06
1.95862e-07
4.72452e-06
1.94878e-07
4.73046e-06
1.98226e-07
1.90332e-07
4.73437e-06
4.94076e-06
-4.63619e-07
4.96775e-06
1.09446e-07
4.95462e-06
8.98271e-08
4.95785e-06
-1.49068e-07
4.95843e-06
1.04699e-07
4.96581e-06
1.05419e-07
4.97331e-06
4.85708e-09
4.96829e-06
-2.47155e-08
4.9645e-06
-1.22488e-07
4.95492e-06
-1.65411e-07
4.94283e-06
-1.1043e-07
4.93668e-06
-5.31522e-08
4.93793e-06
4.88172e-08
4.93491e-06
1.04162e-07
4.93753e-06
1.42745e-07
4.94411e-06
1.85379e-07
4.94673e-06
1.93248e-07
4.95055e-06
1.91057e-07
4.9565e-06
1.92275e-07
1.85795e-07
4.96104e-06
5.17797e-06
-4.35278e-07
5.20478e-06
8.26364e-08
5.19267e-06
1.01943e-07
5.19471e-06
-1.51109e-07
5.19672e-06
1.02683e-07
5.20244e-06
9.97013e-08
5.21056e-06
-3.25834e-09
5.20582e-06
-1.99728e-08
5.20072e-06
-1.17397e-07
5.19241e-06
-1.57097e-07
5.17991e-06
-9.79306e-08
5.17293e-06
-4.61667e-08
5.17447e-06
4.72774e-08
5.17192e-06
1.06708e-07
5.17362e-06
1.41041e-07
5.18054e-06
1.78465e-07
5.18412e-06
1.89665e-07
5.18763e-06
1.87547e-07
5.19335e-06
1.86559e-07
1.80822e-07
5.19832e-06
5.42666e-06
-4.06749e-07
5.45306e-06
5.62322e-08
5.44216e-06
1.12847e-07
5.44297e-06
-1.51914e-07
5.4464e-06
9.92485e-08
5.4505e-06
9.55989e-08
5.45897e-06
-1.17252e-08
5.45476e-06
-1.57667e-08
5.44818e-06
-1.10818e-07
5.44101e-06
-1.49918e-07
5.42856e-06
-8.54838e-08
5.42027e-06
-3.78819e-08
5.4221e-06
4.54552e-08
5.42049e-06
1.08312e-07
5.42137e-06
1.40168e-07
5.42817e-06
1.71664e-07
5.43279e-06
1.85039e-07
5.43624e-06
1.84098e-07
5.44161e-06
1.8119e-07
1.75652e-07
5.44678e-06
5.68737e-06
-3.78165e-07
5.71314e-06
3.04668e-08
5.7036e-06
1.22383e-07
5.70317e-06
-1.51477e-07
5.70801e-06
9.44087e-08
5.71054e-06
9.30605e-08
5.7191e-06
-2.02812e-08
5.71566e-06
-1.23248e-08
5.70743e-06
-1.02594e-07
5.70112e-06
-1.43601e-07
5.68932e-06
-7.36894e-08
5.67959e-06
-2.81492e-08
5.68138e-06
4.36697e-08
5.6811e-06
1.08588e-07
5.68137e-06
1.39894e-07
5.68764e-06
1.65399e-07
5.69321e-06
1.79471e-07
5.69688e-06
1.80429e-07
5.70189e-06
1.76176e-07
1.70459e-07
5.70708e-06
5.9607e-06
-3.49669e-07
5.98559e-06
5.57062e-09
5.97753e-06
1.3045e-07
5.97584e-06
-1.49795e-07
5.9821e-06
8.81486e-08
5.98315e-06
9.20116e-08
5.9915e-06
-2.86239e-08
5.98906e-06
-9.88703e-09
5.97906e-06
-9.25922e-08
5.9732e-06
-1.37742e-07
5.96266e-06
-6.3153e-08
5.9517e-06
-1.71882e-08
5.95293e-06
4.24417e-08
5.95416e-06
1.0736e-07
5.95426e-06
1.3979e-07
5.95966e-06
1.60002e-07
5.96589e-06
1.73238e-07
5.97003e-06
1.7629e-07
5.97475e-06
1.71451e-07
1.65324e-07
5.97989e-06
6.24724e-06
-3.21416e-07
6.27102e-06
-1.82161e-08
6.26453e-06
1.36945e-07
6.26153e-06
-1.46796e-07
6.26929e-06
8.03885e-08
6.26895e-06
9.23509e-08
6.27669e-06
-3.6367e-08
6.27551e-06
-8.70708e-09
6.26376e-06
-8.08445e-08
6.2577e-06
-1.31682e-07
6.24896e-06
-5.44137e-08
6.23733e-06
-5.55124e-09
6.23747e-06
4.22976e-08
6.2401e-06
1.04734e-07
6.24056e-06
1.39324e-07
6.24496e-06
1.55606e-07
6.25145e-06
1.66743e-07
6.25621e-06
1.71531e-07
6.26078e-06
1.6688e-07
1.60266e-07
6.26584e-06
6.54763e-06
-2.93574e-07
6.57005e-06
-4.06361e-08
6.56527e-06
1.41724e-07
6.56078e-06
-1.42308e-07
6.57021e-06
7.0964e-08
6.56861e-06
9.39498e-08
6.57525e-06
-4.30115e-08
6.57559e-06
-9.04208e-09
6.5623e-06
-6.75569e-08
6.55526e-06
-1.24639e-07
6.54868e-06
-4.7836e-08
6.53719e-06
5.93471e-09
6.53581e-06
4.36825e-08
6.53948e-06
1.01062e-07
6.54077e-06
1.38038e-07
6.54428e-06
1.52096e-07
6.5506e-06
1.60417e-07
6.55598e-06
1.66148e-07
6.56056e-06
1.62304e-07
1.55272e-07
6.56555e-06
6.86254e-06
-2.66325e-07
6.88331e-06
-6.14033e-08
6.88045e-06
1.44579e-07
6.87425e-06
-1.36101e-07
6.8855e-06
5.97057e-08
6.88289e-06
9.65596e-08
6.88777e-06
-4.78842e-08
6.88985e-06
-1.11209e-08
6.87554e-06
-5.32512e-08
6.86679e-06
-1.15884e-07
6.86243e-06
-4.34848e-08
6.85185e-06
1.6514e-08
6.84883e-06
4.67039e-08
6.85293e-06
9.69599e-08
6.85537e-06
1.35607e-07
6.85829e-06
1.49167e-07
6.8641e-06
1.54611e-07
6.86996e-06
1.60285e-07
6.87469e-06
1.57581e-07
1.50319e-07
6.87964e-06
7.19267e-06
-2.39861e-07
7.21145e-06
-8.01824e-08
7.21081e-06
1.45218e-07
7.20262e-06
-1.27913e-07
7.21581e-06
4.65223e-08
7.21262e-06
9.97468e-08
7.21496e-06
-5.02203e-08
7.21886e-06
-1.5023e-08
7.20434e-06
-3.87352e-08
7.19335e-06
-1.04894e-07
7.19077e-06
-4.09018e-08
7.18185e-06
2.54311e-08
7.1774e-06
5.11537e-08
7.18125e-06
9.3114e-08
7.18488e-06
1.31976e-07
7.18767e-06
1.46378e-07
7.19276e-06
1.49521e-07
7.19885e-06
1.54195e-07
7.20382e-06
1.52608e-07
1.45386e-07
7.20876e-06
7.53875e-06
-2.14387e-07
7.55516e-06
-9.65919e-08
7.55706e-06
1.43315e-07
7.54669e-06
-1.17536e-07
7.56161e-06
3.15956e-08
7.55856e-06
1.028e-07
7.55775e-06
-4.94108e-08
7.56314e-06
-2.04139e-08
7.54945e-06
-2.50442e-08
7.5361e-06
-9.15433e-08
7.53435e-06
-3.91521e-08
7.52767e-06
3.21094e-08
7.52229e-06
5.65393e-08
7.52531e-06
9.0087e-08
7.52992e-06
1.27368e-07
7.53301e-06
1.43286e-07
7.5374e-06
1.45139e-07
7.5434e-06
1.48191e-07
7.54865e-06
1.47356e-07
1.40432e-07
7.55361e-06
7.90153e-06
-1.9011e-07
7.91521e-06
-1.10264e-07
7.91993e-06
1.38588e-07
7.90726e-06
-1.04864e-07
7.92329e-06
1.55683e-08
7.92143e-06
1.04654e-07
7.91719e-06
-4.51618e-08
7.92333e-06
-2.6561e-08
7.91143e-06
-1.31415e-08
7.89609e-06
-7.61987e-08
7.89406e-06
-3.71269e-08
7.8898e-06
3.63729e-08
7.88417e-06
6.21699e-08
7.88607e-06
8.81857e-08
7.89124e-06
1.22193e-07
7.89493e-06
1.39597e-07
7.89882e-06
1.41251e-07
7.90446e-06
1.42553e-07
7.9099e-06
1.41913e-07
1.35416e-07
7.91492e-06
8.2818e-06
-1.67231e-07
8.29246e-06
-1.20921e-07
8.30013e-06
1.30923e-07
8.28521e-06
-8.99507e-08
8.3014e-06
-6.24622e-10
8.3019e-06
1.04154e-07
8.29433e-06
-3.75856e-08
8.30015e-06
-3.23815e-08
8.29074e-06
-3.72929e-09
8.27415e-06
-5.96092e-08
8.27095e-06
-3.39344e-08
8.26886e-06
3.84678e-08
8.26368e-06
6.7354e-08
8.26442e-06
8.7441e-08
8.2697e-06
1.16911e-07
8.27408e-06
1.35223e-07
8.27779e-06
1.3754e-07
8.28293e-06
1.37415e-07
8.28837e-06
1.36471e-07
1.30332e-07
8.29345e-06
8.68037e-06
-1.45935e-07
8.68784e-06
-1.28399e-07
8.69834e-06
1.20425e-07
8.68158e-06
-7.31855e-08
8.69679e-06
-1.58376e-08
8.70056e-06
1.0038e-07
8.69024e-06
-2.72624e-08
8.69449e-06
-3.66352e-08
8.68787e-06
2.8915e-09
8.671e-06
-4.27412e-08
8.66618e-06
-2.91057e-08
8.66567e-06
3.89728e-08
8.66145e-06
7.15788e-08
8.66126e-06
8.76303e-08
8.66624e-06
1.11923e-07
8.67121e-06
1.30254e-07
8.67501e-06
1.33739e-07
8.6797e-06
1.32724e-07
8.68495e-06
1.31225e-07
1.25276e-07
8.69001e-06
9.09806e-06
-1.26375e-07
9.10228e-06
-1.32619e-07
9.11529e-06
1.07414e-07
9.09762e-06
-5.55134e-08
9.11042e-06
-2.86379e-08
9.1179e-06
9.28946e-08
9.10592e-06
-1.52785e-08
9.1075e-06
-3.82109e-08
9.1034e-06
6.98751e-09
9.0873e-06
-2.66448e-08
9.08084e-06
-2.26474e-08
9.08116e-06
3.86601e-08
9.0782e-06
7.45347e-08
9.0774e-06
8.84327e-08
9.08183e-06
1.07492e-07
9.08721e-06
1.24872e-07
9.09126e-06
1.29691e-07
9.09565e-06
1.28336e-07
9.10063e-06
1.26241e-07
1.20423e-07
9.10549e-06
9.53576e-06
-1.08672e-07
9.53677e-06
-1.33631e-07
9.55173e-06
9.24574e-08
9.53434e-06
-3.81227e-08
9.5434e-06
-3.7701e-08
9.55433e-06
8.19602e-08
9.54225e-06
-3.1975e-09
9.54047e-06
-3.6432e-08
9.53817e-06
9.29196e-09
9.5237e-06
-1.21772e-08
9.51594e-06
-1.48825e-08
9.5164e-06
3.81927e-08
9.51475e-06
7.61877e-08
9.51371e-06
8.9476e-08
9.51744e-06
1.03764e-07
9.52301e-06
1.19292e-07
9.5274e-06
1.25309e-07
9.53159e-06
1.24138e-07
9.53637e-06
1.21463e-07
1.15876e-07
9.54092e-06
9.99436e-06
-9.28986e-08
9.99233e-06
-1.31597e-07
1.00085e-05
7.628e-08
9.99255e-06
-2.21728e-08
9.99704e-06
-4.21833e-08
1.00105e-05
6.85346e-08
9.99997e-06
7.29356e-09
9.99497e-06
-3.1428e-08
9.99334e-06
1.09227e-08
9.98089e-06
2.74049e-10
9.97235e-06
-6.34961e-09
9.97255e-06
3.79977e-08
9.97201e-06
7.67278e-08
9.97107e-06
9.04134e-08
9.97405e-06
1.00781e-07
9.97959e-06
1.13757e-07
9.98437e-06
1.20525e-07
9.98846e-06
1.20055e-07
9.99307e-06
1.16853e-07
1.11549e-07
9.99739e-06
1.04748e-05
-7.90834e-08
1.047e-05
-1.26759e-07
1.04866e-05
5.96286e-08
1.0473e-05
-8.57816e-09
1.04729e-05
-4.2044e-08
1.04872e-05
5.42343e-08
1.04797e-05
1.48162e-08
1.04723e-05
-2.40425e-08
1.04703e-05
1.29256e-08
1.04597e-05
1.0854e-08
1.0451e-05
2.39057e-09
1.04507e-05
3.82979e-08
1.0451e-05
7.63639e-08
1.04504e-05
9.10348e-08
1.04527e-05
9.84618e-08
1.0458e-05
1.08535e-07
1.04631e-05
1.15346e-07
1.04672e-05
1.15941e-07
1.04716e-05
1.12479e-07
1.07251e-07
1.04759e-05
1.09781e-05
-6.71986e-08
1.09708e-05
-1.19437e-07
1.09872e-05
4.31901e-08
1.09766e-05
2.02672e-09
1.09726e-05
-3.79938e-08
1.09858e-05
4.09818e-08
1.09819e-05
1.87674e-08
1.09735e-05
-1.56497e-08
1.09704e-05
1.60261e-08
1.09613e-05
1.99996e-08
1.09527e-05
1.09599e-08
1.09519e-05
3.90999e-08
1.09529e-05
7.53212e-08
1.09528e-05
9.12014e-08
1.09546e-05
9.66559e-08
1.09593e-05
1.03844e-07
1.09647e-05
1.09948e-07
1.0969e-05
1.11555e-07
1.09731e-05
1.08411e-07
1.02946e-07
1.09774e-05
1.15053e-05
-5.71568e-08
1.1496e-05
-1.10069e-07
1.15115e-05
2.7675e-08
1.15043e-05
9.24307e-09
1.14973e-05
-3.10765e-08
1.15079e-05
3.03912e-08
1.15074e-05
1.93435e-08
1.14994e-05
-7.74607e-09
1.1495e-05
2.04421e-08
1.14867e-05
2.82915e-08
1.14785e-05
1.92187e-08
1.14773e-05
4.03177e-08
1.14788e-05
7.3779e-08
1.14792e-05
9.08519e-08
1.14807e-05
9.51528e-08
1.14847e-05
9.97758e-08
1.149e-05
1.04648e-07
1.14948e-05
1.06743e-07
1.14987e-05
1.0451e-07
9.88149e-08
1.15029e-05
1.20575e-05
-4.87978e-08
1.20466e-05
-9.9224e-08
1.20605e-05
1.38059e-08
1.20567e-05
1.30289e-08
1.20482e-05
-2.26178e-08
1.20552e-05
2.34349e-08
1.20568e-05
1.77022e-08
1.20508e-05
-1.71389e-09
1.20455e-05
2.57533e-08
1.20375e-05
3.63109e-08
1.20295e-05
2.72229e-08
1.20279e-05
4.18814e-08
1.20298e-05
7.18615e-08
1.20307e-05
8.99289e-08
1.20321e-05
9.38086e-08
1.20356e-05
9.62627e-08
1.20405e-05
9.97319e-08
1.20456e-05
1.01631e-07
1.20497e-05
1.00445e-07
9.50264e-08
1.20535e-05
1.26357e-05
-4.18954e-08
1.2624e-05
-8.75754e-08
1.26356e-05
2.28895e-09
1.26349e-05
1.36588e-08
1.26262e-05
-1.39078e-08
1.26293e-05
2.03071e-08
1.26315e-05
1.55308e-08
1.2628e-05
1.76658e-09
1.2623e-05
3.08281e-08
1.26149e-05
4.43815e-08
1.26069e-05
3.51951e-08
1.2605e-05
4.3817e-08
1.26071e-05
6.9728e-08
1.26087e-05
8.83174e-08
1.261e-05
9.2528e-08
1.26131e-05
9.31679e-08
1.26175e-05
9.52875e-08
1.26226e-05
9.65718e-08
1.26271e-05
9.59805e-08
9.1478e-08
1.26306e-05
1.32412e-05
-3.61718e-08
1.32295e-05
-7.59121e-08
1.32381e-05
-6.22914e-09
1.324e-05
1.17039e-08
1.32321e-05
-6.01256e-09
1.32321e-05
2.03379e-08
1.3233e-05
1.46085e-08
1.32318e-05
2.99157e-09
1.32282e-05
3.43802e-08
1.32204e-05
5.22205e-08
1.32123e-05
4.33368e-08
1.32097e-05
4.63419e-08
1.3212e-05
6.74929e-08
1.32143e-05
8.6021e-08
1.32157e-05
9.11261e-08
1.32184e-05
9.04493e-08
1.32225e-05
9.12142e-08
1.32272e-05
9.18614e-08
1.32319e-05
9.12171e-08
8.78299e-08
1.32356e-05
1.38753e-05
-3.1327e-08
1.38643e-05
-6.49033e-08
1.38696e-05
-1.15076e-08
1.38732e-05
8.11337e-09
1.38668e-05
3.21826e-10
1.38647e-05
2.25022e-08
1.38634e-05
1.59247e-08
1.38631e-05
3.26583e-09
1.3862e-05
3.54625e-08
1.38553e-05
5.89783e-08
1.38469e-05
5.1679e-08
1.38436e-05
4.96537e-08
1.38457e-05
6.54384e-08
1.38486e-05
8.30337e-08
1.38504e-05
8.93915e-08
1.38527e-05
8.80911e-08
1.38565e-05
8.74308e-08
1.38608e-05
8.75372e-08
1.38655e-05
8.65084e-08
8.38306e-08
1.38695e-05
1.45394e-05
-2.70866e-08
1.45295e-05
-5.49302e-08
1.45317e-05
-1.37819e-08
1.45357e-05
4.08899e-09
1.45314e-05
4.62792e-09
1.45282e-05
2.57346e-08
1.45247e-05
1.94466e-08
1.45237e-05
4.27936e-09
1.45251e-05
3.40019e-08
1.45206e-05
6.35516e-08
1.45123e-05
5.99637e-08
1.45082e-05
5.37663e-08
1.45096e-05
6.39836e-08
1.4513e-05
7.96058e-08
1.45155e-05
8.69895e-08
1.45175e-05
8.60129e-08
1.4521e-05
8.39859e-08
1.45251e-05
8.34533e-08
1.45295e-05
8.21135e-08
7.95366e-08
1.45337e-05
1.5235e-05
-2.32129e-08
1.52263e-05
-4.6213e-08
1.5226e-05
-1.3468e-08
1.52294e-05
6.71004e-10
1.52271e-05
6.91082e-09
1.52238e-05
2.90572e-08
1.52187e-05
2.45803e-08
1.52158e-05
7.13849e-09
1.52188e-05
3.10417e-08
1.52171e-05
6.51693e-08
1.52098e-05
6.72933e-08
1.52049e-05
5.86839e-08
1.52055e-05
6.33402e-08
1.5209e-05
7.6122e-08
1.52121e-05
8.38964e-08
1.52143e-05
8.38091e-08
1.52173e-05
8.10253e-08
1.52212e-05
7.95464e-08
1.52252e-05
7.8093e-08
7.52128e-08
1.52295e-05
1.59637e-05
-1.95343e-08
1.59562e-05
-3.8748e-08
1.59539e-05
-1.11703e-08
1.59559e-05
-1.37071e-09
1.59553e-05
7.54565e-09
1.59526e-05
3.17694e-08
1.59468e-05
3.04074e-08
1.59418e-05
1.2078e-08
1.59446e-05
2.82933e-08
1.5946e-05
6.37437e-08
1.59407e-05
7.25524e-08
1.59353e-05
6.40932e-08
1.5935e-05
6.37073e-08
1.59382e-05
7.28481e-08
1.59417e-05
8.04234e-08
1.59444e-05
8.11406e-08
1.5947e-05
7.83797e-08
1.59507e-05
7.59122e-08
1.59544e-05
7.43225e-08
7.11267e-08
1.59585e-05
1.6727e-05
-1.5972e-08
1.67206e-05
-3.235e-08
1.67171e-05
-7.65659e-09
1.67172e-05
-1.44961e-09
1.67176e-05
7.19996e-09
1.6716e-05
3.33198e-08
1.67103e-05
3.61475e-08
1.67038e-05
1.85587e-08
1.67049e-05
2.72189e-08
1.67085e-05
6.00561e-08
1.6706e-05
7.50555e-08
1.6701e-05
6.91677e-08
1.66996e-05
6.50532e-08
1.67023e-05
7.01732e-08
1.6706e-05
7.67131e-08
1.67091e-05
7.80733e-08
1.67117e-05
7.57223e-08
1.6715e-05
7.2599e-08
1.67187e-05
7.06826e-08
6.74097e-08
1.67224e-05
1.75269e-05
-1.2525e-08
1.75214e-05
-2.68572e-08
1.75174e-05
-3.59539e-09
1.75154e-05
4.79744e-10
1.75157e-05
6.88956e-09
1.75155e-05
3.35521e-08
1.75105e-05
4.11486e-08
1.75033e-05
2.57997e-08
1.75022e-05
2.82338e-08
1.75067e-05
5.56529e-08
1.7507e-05
7.47451e-08
1.75032e-05
7.29147e-08
1.75012e-05
6.7118e-08
1.7503e-05
6.83582e-08
1.75067e-05
7.29819e-08
1.75101e-05
7.47148e-08
1.75129e-05
7.28759e-08
1.7516e-05
6.95093e-08
1.75196e-05
6.71147e-08
6.39871e-08
1.7523e-05
1.83651e-05
-9.24635e-09
1.83602e-05
-2.19444e-08
1.83562e-05
3.87947e-10
1.83526e-05
4.04435e-09
1.8352e-05
7.48388e-09
1.83528e-05
3.27462e-08
1.83492e-05
4.48037e-08
1.83418e-05
3.3188e-08
1.8339e-05
3.10202e-08
1.83426e-05
5.20159e-08
1.83451e-05
7.22353e-08
1.83434e-05
7.46694e-08
1.83412e-05
6.93457e-08
1.83422e-05
6.7311e-08
1.83455e-05
6.9722e-08
1.83492e-05
7.10095e-08
1.83522e-05
6.98576e-08
1.83552e-05
6.65155e-08
1.83586e-05
6.36442e-08
6.06612e-08
1.8362e-05
1.92434e-05
-6.22455e-09
1.92386e-05
-1.71972e-08
1.92352e-05
3.84344e-09
1.92305e-05
8.66457e-09