/*--------------------------------*- C++ -*----------------------------------*\
| =========                 |                                                 |
| \\      /  F ield         | OpenFOAM: The Open Source CFD Toolbox           |
|  \\    /   O peration     | Version:  2106                                  |
|   \\  /    A nd           | Website:  www.openfoam.com                      |
|    \\/     M anipulation  |                                                 |
\*---------------------------------------------------------------------------*/
FoamFile
{
    version     2.0;
    format      ascii;
    arch        "LSB;label=32;scalar=64";
    class       volScalarField;
    location    "0.095";
    object      p;
}
// * * * * * * * * * * * * * * * * * * * * * * * * * * * * * * * * * * * * * //

dimensions      [0 2 -2 0 0 0 0];

internalField   nonuniform List<scalar> 
9600
(
-1.28493e-11
0.00536069
0.00383857
0.00596496
0.0066149
0.00475752
0.00610577
0.00777347
0.00693241
0.0071853
0.00879446
0.00894135
0.00885595
0.0106766
0.0107481
0.0114306
0.0130612
0.0151093
0.017184
0.0217149
3.85387e-06
0.00535813
0.00384147
0.00596114
0.00661325
0.00475703
0.00610935
0.00776889
0.00693231
0.0071813
0.00879694
0.00893857
0.00886245
0.0106504
0.010758
0.0114422
0.0130574
0.0150676
0.0172872
0.0213378
9.28296e-06
0.00535476
0.00384612
0.00595118
0.00661035
0.00476053
0.00611432
0.00775853
0.00693228
0.00718111
0.00879768
0.00893324
0.00887169
0.0106159
0.0107781
0.011459
0.0130442
0.0150261
0.0173313
0.0208082
1.69611e-05
0.00535751
0.00385337
0.00593593
0.00660664
0.00476991
0.00612143
0.0077423
0.00693259
0.00718708
0.00879519
0.00892574
0.00888518
0.0105748
0.0108007
0.0114796
0.0130242
0.0149809
0.0173199
0.0203386
2.84551e-05
0.00536763
0.00386301
0.00591577
0.00660298
0.00478493
0.0061309
0.00772091
0.00693442
0.00719765
0.00879078
0.00891727
0.00890136
0.0105286
0.0108264
0.011498
0.0130034
0.0149277
0.0172843
0.0199122
4.46725e-05
0.00538331
0.00387415
0.00589215
0.00660029
0.00480389
0.00614222
0.00769642
0.0069383
0.00721063
0.00878569
0.0089083
0.00891885
0.0104806
0.0108539
0.0115129
0.012983
0.0148687
0.0172227
0.0195104
6.56598e-05
0.00540257
0.00388581
0.00586667
0.00659903
0.0048246
0.00615473
0.00767094
0.00694391
0.00722406
0.00878054
0.00889876
0.00893686
0.0104328
0.0108813
0.0115249
0.0129604
0.0148045
0.0171324
0.0191287
9.08912e-05
0.00542404
0.00389739
0.00584054
0.00659916
0.00484539
0.00616806
0.00764578
0.00695054
0.0072367
0.00877562
0.00888842
0.0089548
0.0103859
0.0109081
0.0115346
0.0129328
0.0147361
0.0170141
0.0187633
0.000119607
0.00544681
0.00390878
0.00581433
0.00660027
0.00486544
0.00618204
0.00762143
0.00695753
0.00724805
0.00877111
0.00887717
0.00897213
0.0103405
0.0109336
0.0115421
0.0128982
0.0146647
0.0168685
0.0184076
0.000151075
0.00547033
0.00392026
0.00578806
0.0066019
0.00488458
0.00619657
0.00759782
0.00696447
0.00725805
0.00876709
0.00886504
0.00898828
0.0102971
0.0109568
0.0115483
0.0128556
0.0145903
0.0166951
0.0180562
0.000184753
0.00549428
0.00393225
0.00576155
0.00660374
0.00490292
0.00621158
0.00757473
0.00697115
0.00726683
0.00876359
0.00885222
0.0090027
0.0102559
0.0109766
0.0115539
0.0128039
0.014512
0.0164886
0.0177057
0.000220331
0.00551849
0.00394507
0.00573456
0.00660564
0.00492058
0.00622704
0.00755194
0.00697743
0.00727453
0.00876058
0.00883901
0.00901485
0.0102174
0.0109915
0.0115593
0.0127426
0.0144289
0.0162729
0.017353
0.000257683
0.0055428
0.00395899
0.00570693
0.00660758
0.00493764
0.00624286
0.00752937
0.00698323
0.00728127
0.00875786
0.00882576
0.00902409
0.010182
0.0110007
0.0115644
0.0126718
0.0143389
0.0160491
0.0169954
0.000296804
0.00556707
0.00397418
0.00567855
0.00660958
0.00495407
0.006259
0.00750702
0.00698849
0.00728717
0.00875515
0.00881291
0.00902967
0.0101501
0.0110036
0.0115689
0.0125922
0.0142404
0.0158165
0.0166315
0.000337751
0.00559112
0.00399079
0.00564935
0.00661169
0.00496984
0.00627536
0.00748495
0.0069931
0.00729237
0.00875208
0.00880093
0.00903094
0.010122
0.0109998
0.0115717
0.0125051
0.0141263
0.0155794
0.0162625
0.000380616
0.00561478
0.00400894
0.00561927
0.00661397
0.00498488
0.00629186
0.00746328
0.00699693
0.00729698
0.00874822
0.00879034
0.00902735
0.0100977
0.0109894
0.0115714
0.0124118
0.0139963
0.0153406
0.015891
0.000425502
0.00563781
0.00402876
0.00558826
0.00661649
0.00499912
0.00630838
0.00744215
0.0069998
0.00730126
0.00874303
0.00878162
0.00901852
0.0100769
0.0109725
0.0115656
0.0123148
0.0138491
0.0151011
0.015521
0.000472526
0.00565998
0.00405038
0.00555624
0.00661934
0.00501253
0.00632474
0.00742176
0.00700149
0.00730547
0.00873592
0.00877517
0.00900423
0.0100599
0.0109501
0.0115515
0.012216
0.0136848
0.0148596
0.015157
0.000521808
0.00568105
0.00407394
0.00552317
0.00662257
0.00502507
0.00634074
0.00740236
0.00700174
0.00730994
0.00872637
0.00877113
0.00898457
0.0100476
0.0109241
0.0115263
0.0121162
0.0135056
0.0146133
0.0148012
0.000573476
0.00570072
0.00409958
0.00548896
0.00662625
0.00503675
0.00635616
0.00738424
0.00700015
0.00731497
0.00871398
0.00876932
0.00895994
0.0100321
0.0108964
0.0114883
0.0120149
0.0133149
0.0143603
0.0144551
0.000627666
0.00571871
0.00412745
0.00545355
0.00663045
0.00504761
0.00637069
0.00736777
0.00699633
0.00732089
0.00869847
0.00876937
0.00893114
0.0100138
0.0108684
0.0114369
0.0119103
0.0131169
0.0141007
0.0141187
0.000684515
0.00573469
0.00415768
0.0054169
0.00663517
0.0050578
0.0063839
0.00735331
0.00698992
0.00732798
0.00867965
0.00877082
0.00889946
0.00999012
0.0108408
0.0113727
0.0117997
0.0129156
0.0138362
0.0137909
0.000744166
0.00574833
0.00419042
0.00537895
0.00664043
0.00506744
0.00639537
0.00734135
0.00698047
0.00733627
0.00865774
0.00877258
0.00886655
0.00995908
0.0108133
0.0112978
0.0116798
0.0127127
0.0135694
0.0134707
0.000806769
0.00575929
0.00422581
0.00533968
0.0066462
0.00507675
0.0064046
0.00733243
0.00696755
0.00734564
0.00863325
0.00877307
0.00883419
0.00991971
0.0107842
0.0112151
0.0115485
0.0125075
0.0133039
0.0131588
0.00087247
0.00576721
0.00426397
0.00529909
0.00665237
0.00508604
0.00641102
0.00732699
0.00695095
0.00735574
0.00860696
0.00877087
0.00880374
0.00987116
0.0107515
0.0111277
0.0114054
0.0122982
0.0130422
0.0128574
0.00094142
0.00577173
0.004305
0.00525723
0.0066588
0.00509575
0.0064139
0.00732548
0.00693075
0.0073658
0.00858
0.00876421
0.00877581
0.00981372
0.0107121
0.0110377
0.0112524
0.0120823
0.0127841
0.0125689
0.00101377
0.0057725
0.00434899
0.00521418
0.00666525
0.00510645
0.00641249
0.00732828
0.00690718
0.00737479
0.00855371
0.00875118
0.00875016
0.00974967
0.0106629
0.0109458
0.0110931
0.011859
0.0125282
0.0122937
0.00108966
0.00576918
0.00439598
0.00517009
0.00667142
0.00511872
0.00640616
0.00733559
0.00688053
0.00738125
0.00852979
0.00873092
0.00872575
0.00968146
0.0106016
0.0108517
0.0109314
0.011629
0.0122719
0.0120302
0.00116923
0.00576143
0.00444599
0.00512518
0.00667687
0.00513324
0.00639412
0.00734747
0.00685169
0.00738328
0.00850985
0.00870341
0.00870034
0.00961156
0.0105274
0.0107534
0.0107702
0.0113945
0.0120133
0.0117754
0.00125262
0.00574896
0.00449898
0.00507976
0.00668109
0.00515084
0.00637565
0.00736357
0.00682201
0.00737889
0.00849488
0.00866912
0.00867083
0.00954263
0.0104413
0.0106476
0.0106118
0.011159
0.0117521
0.011526
0.00133993
0.00573152
0.00455482
0.00503426
0.00668347
0.00517235
0.00635025
0.00738314
0.00679317
0.00736617
0.00848495
0.00862965
0.00863383
0.00947579
0.0103457
0.0105305
0.0104554
0.0109272
0.0114895
0.0112797
0.00143126
0.00570892
0.00461333
0.00498922
0.00668327
0.00519864
0.00631759
0.00740511
0.0067672
0.00734328
0.00847931
0.00858779
0.00858626
0.00941009
0.010245
0.0104002
0.0102983
0.0107038
0.0112285
0.0110351
0.00152669
0.00568101
0.00467421
0.00494526
0.00667969
0.00523052
0.0062776
0.00742831
0.00674626
0.00730873
0.00847666
0.00854695
0.00852566
0.00934324
0.010144
0.0102581
0.0101359
0.010491
0.0109738
0.0107915
0.00162626
0.00564779
0.00473706
0.00490314
0.0066718
0.00526865
0.00623056
0.00745593
0.00673266
0.00726197
0.0084746
0.00851062
0.0084511
0.00927122
0.0100473
0.010108
0.00996248
0.0102864
0.0107306
0.0105507
0.00172998
0.0056093
0.00480145
0.00486378
0.00665857
0.00531344
0.00617703
0.00747633
0.00672849
0.00720323
0.00846957
0.00848192
0.00836377
0.00918842
0.00995641
0.00995562
0.00977466
0.0100849
0.0105034
0.0103171
0.00183782
0.00556571
0.00486678
0.00482814
0.00663904
0.00536506
0.0061182
0.00749058
0.00673539
0.00713368
0.00845833
0.00846293
0.00826693
0.00908928
0.00987007
0.00980868
0.00957309
0.00987859
0.0102932
0.0100975
0.00194968
0.00551736
0.00493225
0.00479727
0.00661235
0.00542349
0.00605584
0.00749627
0.00675417
0.00705573
0.00843126
0.00845414
0.00816583
0.0089695
0.00978461
0.0096747
0.00936277
0.00965856
0.0100958
0.00989846
0.00206543
0.00546469
0.004997
0.00477219
0.00657781
0.00548823
0.00599202
0.00749095
0.0067851
0.00697191
0.00838695
0.00845501
0.00806697
0.00882719
0.0096937
0.00955884
0.00915198
0.00941837
0.00990245
0.00972459
0.00218486
0.0054083
0.00506009
0.00475391
0.00653497
0.00555822
0.00592918
0.00747221
0.00682793
0.00688572
0.00832197
0.00846304
0.00797659
0.00866329
0.00958917
0.00946201
0.00895136
0.00915745
0.00970018
0.00957533
0.0023077
0.00534894
0.00512047
0.00474327
0.00648368
0.00563222
0.00587021
0.00743783
0.00688048
0.00680308
0.00823437
0.00847318
0.00790069
0.00848168
0.00946255
0.00938023
0.00877235
0.00888215
0.00947511
0.00944379
0.00243359
0.00528751
0.00517703
0.00474087
0.00642424
0.00570845
0.00581794
0.00738677
0.00693896
0.00672974
0.00812334
0.00847829
0.00784444
0.00828877
0.00930732
0.00930615
0.00862414
0.00860476
0.00921746
0.00931609
0.0025621
0.005225
0.0052287
0.00474717
0.00635742
0.00578454
0.00577489
0.00731891
0.00699917
0.00667003
0.00799013
0.00847152
0.00781011
0.00809335
0.00912067
0.00922946
0.00851014
0.00834009
0.00892622
0.00917223
0.00269274
0.00516254
0.00527439
0.00476233
0.0062845
0.00585816
0.00574297
0.00723468
0.00705613
0.00662714
0.00783884
0.00844541
0.00779522
0.00790592
0.00890438
0.00913853
0.00842663
0.00810342
0.00861105
0.00899177
0.00282491
0.00510126
0.00530957
0.0047862
0.00620703
0.0059521
0.00572345
0.00713581
0.00710451
0.00660261
0.00767572
0.0083942
0.00779534
0.00773665
0.00866448
0.0090228
0.00836489
0.00790644
0.00828983
0.00876236
0.00295799
0.00504238
0.00534088
0.00481824
0.00612626
0.00601016
0.00571661
0.0070252
0.00713936
0.00659597
0.00750889
0.00831452
0.00780287
0.0075928
0.0084097
0.00887532
0.00831285
0.00775303
0.00798246
0.00848568
0.00309126
0.00498709
0.00536432
0.00485747
0.00604422
0.00605771
0.00572219
0.00690589
0.0071568
0.00660556
0.00734653
0.0082055
0.00780865
0.00747792
0.0081512
0.00869396
0.00825677
0.00763854
0.00770687
0.00817764
0.00322398
0.00493649
0.00537969
0.00490254
0.00596315
0.00609311
0.00573899
0.00678778
0.00715426
0.0066285
0.00719489
0.00806861
0.00780299
0.00739123
0.00790113
0.00848155
0.00818436
0.00755372
0.00747413
0.00786207
0.00335538
0.00489157
0.00538714
0.00495186
0.00588522
0.00611518
0.00576526
0.00667212
0.00713035
0.00665941
0.00705842
0.00790808
0.00777743
0.00732831
0.00767048
0.00824528
0.00808694
0.00748688
0.00728582
0.00756184
0.00348474
0.00485313
0.00538709
0.00500363
0.00581247
0.00612349
0.00579834
0.00656234
0.00708514
0.00668894
0.00693993
0.00773113
0.00772657
0.00728216
0.00746695
0.00799532
0.00796009
0.0074253
0.00713603
0.00729368
0.00361132
0.00482192
0.00538025
0.005056
0.00574608
0.00611839
0.00583473
0.00646158
0.00702007
0.00671222
0.00684092
0.00754629
0.00764836
0.00724341
0.00729351
0.00774336
0.00780388
0.00735765
0.00701613
0.00706458
0.00373438
0.0047979
0.00536763
0.00510716
0.00568849
0.00610092
0.00587078
0.00637191
0.00693814
0.00672478
0.00676105
0.00736188
0.00754388
0.00720218
0.00714843
0.00750078
0.00762284
0.00727555
0.00691613
0.00687282
0.00385322
0.0047814
0.00535045
0.00515542
0.00563952
0.00607275
0.00590307
0.00629418
0.00684361
0.00672247
0.00669598
0.0071851
0.00741703
0.00715043
0.00702694
0.00727644
0.00742508
0.00717405
0.00682613
0.0067126
0.00396725
0.00477233
0.00532997
0.0051993
0.00559918
0.00603595
0.00592867
0.00622809
0.00674107
0.00670273
0.00664138
0.00702119
0.00727355
0.00708327
0.00692236
0.00707496
0.00722029
0.00705201
0.00673747
0.00657659
0.00407598
0.00477028
0.00530755
0.00523768
0.00556693
0.00599279
0.0059455
0.00617225
0.00663517
0.00666526
0.00659218
0.00687246
0.00711998
0.00699885
0.00682706
0.00689673
0.0070176
0.0069121
0.00664352
0.00645713
0.00417903
0.00477473
0.00528434
0.00526979
0.00554179
0.00594555
0.00595225
0.0061245
0.00652991
0.00661146
0.00654325
0.00673881
0.0069628
0.00689795
0.00673425
0.00673954
0.00682411
0.00675965
0.00654027
0.00634726
0.00427614
0.00478496
0.00526055
0.00529521
0.00552242
0.00589634
0.00594851
0.00608239
0.00642816
0.00654366
0.00649052
0.00661854
0.00680755
0.00678335
0.00663904
0.0065993
0.00664398
0.00660106
0.00642667
0.00624124
0.00436712
0.00480015
0.00523907
0.00531396
0.00550736
0.0058469
0.00593466
0.00604331
0.0063316
0.00646497
0.00643143
0.00650902
0.00665814
0.006659
0.00653858
0.0064712
0.00647863
0.0064423
0.00630426
0.006135
0.0044519
0.00481936
0.00521985
0.00532635
0.00549512
0.00579816
0.00591132
0.00600494
0.00624085
0.00637872
0.00636483
0.00640722
0.00651666
0.00652914
0.006432
0.00635071
0.00632735
0.00628798
0.00617614
0.00602636
0.00453049
0.00484164
0.00520328
0.00533297
0.00548428
0.00575137
0.00587944
0.00596543
0.00615577
0.00628808
0.00629078
0.00631022
0.00638368
0.00639761
0.00631996
0.00623435
0.00618812
0.00614089
0.00604588
0.00591494
0.00460296
0.00486606
0.00518955
0.00533452
0.0054736
0.00570672
0.00584192
0.00592379
0.00607567
0.00619566
0.00621025
0.00621566
0.00625884
0.00626743
0.00620406
0.00611989
0.00605843
0.00600215
0.00591667
0.00580167
0.00466944
0.00489175
0.00517867
0.00533181
0.00546211
0.00566429
0.00579968
0.00587879
0.00599965
0.00610344
0.00612469
0.00612194
0.00614112
0.00614065
0.0060863
0.00600626
0.00593594
0.00587168
0.00579085
0.00568813
0.00473013
0.0049179
0.00517044
0.00532569
0.00544913
0.00562386
0.00575397
0.00583045
0.0059266
0.0060127
0.00603579
0.00602823
0.00602927
0.00601844
0.00596865
0.00589334
0.00581883
0.0057487
0.00566978
0.00557596
0.00478524
0.00494382
0.00516456
0.00531691
0.00543426
0.00558511
0.00570604
0.00577895
0.00585549
0.00592412
0.0059452
0.00593434
0.00592212
0.00590129
0.00585275
0.00578157
0.00570593
0.00563223
0.00555407
0.0054665
0.004835
0.0049689
0.00516062
0.00530618
0.00541736
0.00554754
0.00565689
0.00572485
0.00578567
0.00583802
0.00585436
0.00584054
0.00581879
0.00578921
0.00573983
0.0056717
0.00559663
0.00552136
0.00544378
0.00536067
0.00487964
0.00499265
0.00515814
0.00529405
0.00539846
0.00551074
0.00560729
0.00566888
0.00571676
0.0057545
0.0057644
0.0057474
0.00571874
0.00568198
0.00563069
0.0055645
0.00549079
0.00541542
0.00533868
0.00525899
0.00491942
0.00501468
0.00515664
0.00528097
0.00537779
0.0054744
0.00555776
0.00561176
0.00564861
0.00567354
0.0056762
0.00565559
0.00562174
0.00557934
0.0055258
0.00546067
0.00538853
0.00531401
0.00523852
0.00516168
0.00495458
0.00503469
0.00515567
0.00526727
0.00535563
0.00543831
0.00550868
0.00555422
0.0055813
0.00559512
0.00559036
0.00556577
0.00552781
0.00548108
0.00542538
0.00536074
0.0052901
0.00521695
0.00514306
0.00506879
0.00498537
0.00505249
0.0051548
0.00525318
0.00533233
0.0054024
0.00546032
0.00549693
0.00551509
0.00551925
0.00550734
0.00547856
0.00543714
0.0053871
0.00532956
0.0052651
0.00519578
0.00512423
0.00505217
0.00498033
0.00501203
0.00506795
0.00515372
0.00523884
0.00530825
0.00536675
0.00541293
0.00544045
0.00545032
0.00544605
0.00542747
0.00539448
0.00535002
0.00529743
0.00523842
0.00517402
0.00510587
0.00503595
0.0049658
0.0048963
0.00503482
0.00508104
0.00515216
0.00522436
0.00528375
0.00533149
0.00536674
0.00538531
0.00538739
0.00537568
0.00535104
0.005314
0.00526679
0.00521218
0.00515206
0.00508773
0.0050206
0.00495226
0.00488401
0.00481672
0.00505401
0.0050918
0.00514995
0.00520986
0.00525923
0.00529684
0.00532196
0.00533193
0.00532673
0.00530841
0.00527832
0.00523749
0.00518779
0.00513154
0.0050706
0.00500639
0.0049402
0.00487333
0.0048069
0.0047417
0.00506985
0.00510032
0.00514703
0.00519546
0.00523498
0.00526306
0.00527887
0.00528077
0.00526878
0.00524454
0.00520962
0.00516532
0.00511337
0.00505576
0.00499423
0.0049302
0.00486488
0.00479938
0.00473464
0.00467138
0.00508264
0.00510674
0.00514341
0.00518127
0.00521135
0.00523052
0.00523781
0.00523224
0.00521399
0.00518446
0.00514525
0.00509785
0.00504389
0.00498513
0.00492318
0.00485938
0.00479487
0.00473062
0.00466744
0.00460594
0.0050927
0.00511127
0.00513916
0.00516745
0.00518867
0.00519958
0.00519913
0.00518676
0.00516281
0.00512856
0.00508558
0.00503543
0.0049797
0.00491997
0.00485771
0.00479418
0.00473043
0.00466731
0.00460554
0.00454562
0.00510034
0.00511416
0.00513445
0.00515421
0.00516729
0.00517065
0.00516324
0.00514478
0.00511572
0.00507728
0.00503101
0.00497847
0.0049212
0.00486065
0.00479816
0.00473491
0.00467184
0.00460974
0.00454921
0.00449071
0.00510589
0.00511573
0.00512951
0.00514178
0.00514757
0.00514416
0.00513058
0.00510675
0.0050732
0.00503112
0.00498201
0.00492743
0.00486883
0.0048076
0.00474494
0.00468194
0.00461947
0.00455824
0.0044988
0.00444153
0.00510972
0.00511627
0.00512463
0.00513051
0.00512997
0.00512063
0.00510173
0.00507325
0.00503581
0.00499058
0.00493906
0.00488274
0.00482304
0.00476124
0.00469847
0.0046357
0.00457373
0.00451322
0.00445466
0.00439839
0.00511218
0.00511613
0.00512016
0.00512074
0.0051149
0.00510062
0.00507735
0.00504508
0.00500446
0.00495665
0.00490314
0.0048454
0.00478479
0.00472252
0.00465964
0.00459706
0.00453552
0.00447559
0.00441768
0.0043621
0.00511353
0.00511554
0.00511625
0.00511245
0.00510249
0.00508432
0.00505774
0.00502266
0.00497968
0.00493
0.00487507
0.00481635
0.00475514
0.00469257
0.00462966
0.00456726
0.00450608
0.00444666
0.00438939
0.00433455
0.00511444
0.00511582
0.00511472
0.00510712
0.00509334
0.00507202
0.00504266
0.00500508
0.00495994
0.00490847
0.00485214
0.00479237
0.00473042
0.00466739
0.00460422
0.00454173
0.00448057
0.00442126
0.00436418
0.00430958
0.0295354
0.0206954
0.0100894
0.00339143
0.00131667
0.00129875
0.00165141
0.00211031
0.00237827
0.00214901
0.00180718
0.0017447
0.00165633
0.00139924
0.00123921
0.00115464
0.0010565
0.00107115
0.00113503
0.00110694
0.00111436
0.00123925
0.00131697
0.00127851
0.00124811
0.00127786
0.00129579
0.00126702
0.00122371
0.00118539
0.00114146
0.00108432
0.00101741
0.000944277
0.000864679
0.000778199
0.000685481
0.000587323
0.000484222
0.000376552
0.000264646
0.000148776
2.91423e-05
-9.4106e-05
-0.000220856
-0.000351022
-0.000484535
-0.000621345
-0.000761413
-0.000904716
-0.00105123
-0.00120096
-0.0013539
-0.00151005
-0.00166943
-0.00183206
-0.00199795
-0.00216713
-0.00233963
-0.00251549
-0.00269474
-0.00287742
-0.00306358
-0.00325326
-0.00344652
-0.00364339
-0.00384394
-0.00404823
-0.00425631
-0.00446824
-0.00468409
-0.00490392
-0.0051278
-0.00535579
-0.00558797
-0.00582441
-0.00606518
-0.00631038
-0.00656003
-0.0068143
-0.00707313
-0.00733685
-0.00760508
-0.00787875
-0.00815647
-0.00844076
-0.00872789
-0.0090236
-0.00932016
-0.00962738
-0.00993477
-0.0102512
-0.0105733
-0.0108942
-0.0112329
-0.0115594
-0.0119034
-0.0122458
-0.0125759
-0.0129236
0.028274
0.0205125
0.0101778
0.00353191
0.00140001
0.00133796
0.00167498
0.00212706
0.00239147
0.00215903
0.00181447
0.00175089
0.00166172
0.00140316
0.00124218
0.00115705
0.00105815
0.00107235
0.00113613
0.00110765
0.00111462
0.00123945
0.00131727
0.00127867
0.00124814
0.00127786
0.00129583
0.00126703
0.0012237
0.00118537
0.00114145
0.00108431
0.0010174
0.000944269
0.000864673
0.000778194
0.000685477
0.00058732
0.00048422
0.00037655
0.000264644
0.000148774
2.91409e-05
-9.41071e-05
-0.000220857
-0.000351022
-0.000484536
-0.000621346
-0.000761413
-0.000904716
-0.00105123
-0.00120096
-0.0013539
-0.00151005
-0.00166943
-0.00183206
-0.00199795
-0.00216713
-0.00233963
-0.00251549
-0.00269474
-0.00287742
-0.00306358
-0.00325326
-0.00344652
-0.00364339
-0.00384394
-0.00404823
-0.00425631
-0.00446824
-0.00468409
-0.00490392
-0.0051278
-0.00535579
-0.00558797
-0.00582441
-0.00606518
-0.00631038
-0.00656003
-0.0068143
-0.00707313
-0.00733685
-0.00760508
-0.00787875
-0.00815647
-0.00844076
-0.00872789
-0.0090236
-0.00932016
-0.00962738
-0.00993477
-0.0102512
-0.0105733
-0.0108942
-0.0112329
-0.0115594
-0.0119034
-0.0122458
-0.0125759
-0.0129236
0.0272183
0.0203679
0.0103751
0.00380113
0.00154549
0.00139081
0.0017014
0.00214702
0.00240743
0.00217197
0.0018251
0.00175997
0.00166924
0.00140898
0.00124694
0.00116093
0.00106085
0.00107438
0.00113792
0.00110891
0.00111533
0.00123997
0.00131769
0.0012789
0.00124827
0.00127799
0.00129592
0.00126706
0.00122371
0.00118539
0.00114146
0.00108431
0.00101739
0.000944267
0.000864673
0.000778194
0.000685477
0.00058732
0.00048422
0.00037655
0.000264644
0.000148774
2.91409e-05
-9.41071e-05
-0.000220857
-0.000351022
-0.000484536
-0.000621346
-0.000761413
-0.000904716
-0.00105123
-0.00120096
-0.0013539
-0.00151005
-0.00166943
-0.00183206
-0.00199795
-0.00216713
-0.00233963
-0.00251549
-0.00269474
-0.00287742
-0.00306358
-0.00325326
-0.00344652
-0.00364339
-0.00384394
-0.00404823
-0.00425631
-0.00446824
-0.00468409
-0.00490392
-0.0051278
-0.00535579
-0.00558797
-0.00582441
-0.00606518
-0.00631038
-0.00656003
-0.0068143
-0.00707313
-0.00733685
-0.00760508
-0.00787875
-0.00815647
-0.00844076
-0.00872789
-0.0090236
-0.00932016
-0.00962738
-0.00993477
-0.0102512
-0.0105733
-0.0108942
-0.0112329
-0.0115594
-0.0119034
-0.0122458
-0.0125759
-0.0129237
0.0262512
0.0202041
0.0106167
0.00414319
0.00174698
0.00146663
0.00174162
0.00217794
0.00243021
0.0021905
0.00184215
0.00177476
0.00168137
0.00141941
0.00125636
0.001169
0.00106709
0.00107912
0.00114186
0.00111225
0.00111782
0.0012415
0.00131852
0.00127952
0.00124889
0.00127848
0.00129616
0.00126716
0.00122379
0.00118542
0.0011415
0.00108432
0.0010174
0.00094427
0.000864674
0.000778194
0.000685477
0.00058732
0.00048422
0.00037655
0.000264645
0.000148775
2.91416e-05
-9.41065e-05
-0.000220857
-0.000351022
-0.000484536
-0.000621345
-0.000761413
-0.000904716
-0.00105123
-0.00120096
-0.0013539
-0.00151005
-0.00166943
-0.00183206
-0.00199795
-0.00216713
-0.00233963
-0.00251549
-0.00269474
-0.00287742
-0.00306358
-0.00325326
-0.00344652
-0.00364339
-0.00384394
-0.00404823
-0.00425631
-0.00446824
-0.00468409
-0.00490392
-0.0051278
-0.00535579
-0.00558797
-0.00582441
-0.00606518
-0.00631038
-0.00656003
-0.0068143
-0.00707313
-0.00733685
-0.00760508
-0.00787875
-0.00815647
-0.00844076
-0.00872789
-0.0090236
-0.00932016
-0.00962738
-0.00993477
-0.0102512
-0.0105733
-0.0108942
-0.0112329
-0.0115594
-0.0119034
-0.0122458
-0.0125759
-0.0129237
0.0252906
0.01999
0.0108627
0.00450723
0.0019707
0.00155347
0.00178956
0.00221676
0.00245898
0.00221497
0.00186646
0.00179618
0.00169922
0.00143578
0.00127171
0.00118258
0.00107827
0.00108772
0.00114888
0.00111873
0.00112319
0.00124474
0.00132018
0.00128094
0.00125042
0.00127962
0.00129674
0.00126747
0.00122405
0.00118564
0.00114162
0.00108433
0.00101742
0.000944285
0.000864681
0.000778195
0.000685477
0.00058732
0.000484221
0.000376551
0.000264646
0.000148776
2.91426e-05
-9.41054e-05
-0.000220856
-0.000351021
-0.000484535
-0.000621345
-0.000761412
-0.000904715
-0.00105123
-0.00120096
-0.0013539
-0.00151005
-0.00166943
-0.00183206
-0.00199795
-0.00216713
-0.00233963
-0.00251549
-0.00269474
-0.00287742
-0.00306358
-0.00325326
-0.00344652
-0.00364339
-0.00384394
-0.00404823
-0.00425631
-0.00446824
-0.00468409
-0.00490392
-0.0051278
-0.00535579
-0.00558797
-0.00582441
-0.00606518
-0.00631038
-0.00656003
-0.0068143
-0.00707313
-0.00733685
-0.00760508
-0.00787875
-0.00815647
-0.00844076
-0.00872789
-0.0090236
-0.00932016
-0.00962738
-0.00993477
-0.0102512
-0.0105733
-0.0108942
-0.0112329
-0.0115594
-0.0119034
-0.0122458
-0.0125759
-0.0129238
0.0243414
0.0197326
0.0111006
0.0048761
0.00220495
0.00164483
0.00183892
0.00225856
0.00249121
0.0022433
0.00189552
0.0018223
0.00172171
0.00145734
0.00129231
0.00120123
0.00109424
0.00110021
0.0011591
0.00112858
0.00113172
0.00124997
0.00132291
0.00128338
0.00125307
0.00128162
0.00129781
0.00126811
0.00122462
0.00118608
0.00114188
0.00108447
0.0010175
0.000944328
0.000864702
0.000778202
0.000685479
0.000587321
0.000484222
0.000376552
0.000264647
0.000148778
2.91444e-05
-9.41036e-05
-0.000220854
-0.000351019
-0.000484533
-0.000621343
-0.000761411
-0.000904714
-0.00105123
-0.00120096
-0.0013539
-0.00151005
-0.00166943
-0.00183206
-0.00199795
-0.00216713
-0.00233963
-0.00251549
-0.00269474
-0.00287742
-0.00306358
-0.00325326
-0.00344652
-0.00364339
-0.00384394
-0.00404823
-0.00425631
-0.00446824
-0.00468409
-0.00490392
-0.0051278
-0.00535579
-0.00558797
-0.00582441
-0.00606518
-0.00631038
-0.00656003
-0.0068143
-0.00707313
-0.00733685
-0.00760508
-0.00787875
-0.00815647
-0.00844076
-0.00872789
-0.0090236
-0.00932016
-0.00962738
-0.00993477
-0.0102512
-0.0105733
-0.0108942
-0.0112329
-0.0115594
-0.0119034
-0.0122458
-0.012576
-0.012924
0.023417
0.0194339
0.011321
0.00524585
0.0024504
0.00174152
0.00188826
0.00230141
0.002526
0.00227432
0.00192727
0.00185109
0.00174704
0.00148218
0.00131631
0.00122319
0.0011134
0.00111544
0.00117172
0.00114107
0.00114281
0.00125692
0.00132664
0.0012868
0.00125678
0.00128443
0.00129939
0.00126914
0.00122551
0.00118679
0.00114232
0.00108472
0.00101766
0.000944424
0.000864752
0.000778224
0.000685488
0.000587325
0.000484224
0.000376555
0.00026465
0.000148781
2.91475e-05
-9.41006e-05
-0.000220851
-0.000351016
-0.000484531
-0.000621341
-0.000761409
-0.000904712
-0.00105123
-0.00120096
-0.0013539
-0.00151005
-0.00166943
-0.00183206
-0.00199795
-0.00216713
-0.00233963
-0.00251549
-0.00269474
-0.00287742
-0.00306358
-0.00325326
-0.00344651
-0.00364339
-0.00384394
-0.00404823
-0.00425631
-0.00446824
-0.00468409
-0.00490392
-0.0051278
-0.00535579
-0.00558797
-0.00582441
-0.00606518
-0.00631038
-0.00656003
-0.0068143
-0.00707313
-0.00733685
-0.00760508
-0.00787875
-0.00815647
-0.00844076
-0.00872789
-0.0090236
-0.00932016
-0.00962738
-0.00993477
-0.0102512
-0.0105733
-0.0108942
-0.011233
-0.0115595
-0.0119034
-0.0122458
-0.012576
-0.0129241
0.0225225
0.0190927
0.0115202
0.00561892
0.00271011
0.00184478
0.00193683
0.00234415
0.00256275
0.00230756
0.00196103
0.00188176
0.00177419
0.00150895
0.00134229
0.00124704
0.00113437
0.00113228
0.00118584
0.00115521
0.00115553
0.00126503
0.00133111
0.00129093
0.00126125
0.00128787
0.0013014
0.00127048
0.00122669
0.00118772
0.00114293
0.00108509
0.0010179
0.000944577
0.000864837
0.000778266
0.000685508
0.000587336
0.000484231
0.00037656
0.000264655
0.000148786
2.91526e-05
-9.40957e-05
-0.000220847
-0.000351012
-0.000484527
-0.000621338
-0.000761406
-0.000904709
-0.00105123
-0.00120096
-0.0013539
-0.00151005
-0.00166943
-0.00183206
-0.00199795
-0.00216713
-0.00233963
-0.00251549
-0.00269474
-0.00287742
-0.00306358
-0.00325326
-0.00344651
-0.00364339
-0.00384394
-0.00404823
-0.00425631
-0.00446824
-0.00468409
-0.00490392
-0.0051278
-0.00535579
-0.00558797
-0.00582441
-0.00606518
-0.00631038
-0.00656003
-0.0068143
-0.00707313
-0.00733685
-0.00760508
-0.00787875
-0.00815647
-0.00844076
-0.00872789
-0.0090236
-0.00932016
-0.00962739
-0.00993476
-0.0102512
-0.0105733
-0.0108942
-0.011233
-0.0115595
-0.0119034
-0.0122458
-0.0125761
-0.0129242
0.0216615
0.0187154
0.0116983
0.0059941
0.00298306
0.00195465
0.00198437
0.00238602
0.0026009
0.00234281
0.00199666
0.0019141
0.00180275
0.00153704
0.00136957
0.00127208
0.00115644
0.00115015
0.00120091
0.00117035
0.00116926
0.00127391
0.00133609
0.0012955
0.00126621
0.00129174
0.00130372
0.00127205
0.00122806
0.00118882
0.00114366
0.00108556
0.00101821
0.000944779
0.000864954
0.000778328
0.000685541
0.000587356
0.000484244
0.00037657
0.000264664
0.000148794
2.91604e-05
-9.40885e-05
-0.00022084
-0.000351006
-0.000484522
-0.000621333
-0.000761402
-0.000904706
-0.00105123
-0.00120095
-0.00135389
-0.00151005
-0.00166943
-0.00183205
-0.00199794
-0.00216713
-0.00233963
-0.00251549
-0.00269473
-0.00287742
-0.00306358
-0.00325326
-0.00344651
-0.00364339
-0.00384394
-0.00404823
-0.00425631
-0.00446824
-0.00468409
-0.00490392
-0.0051278
-0.00535579
-0.00558797
-0.00582441
-0.00606518
-0.00631038
-0.00656003
-0.0068143
-0.00707313
-0.00733685
-0.00760508
-0.00787875
-0.00815647
-0.00844076
-0.00872789
-0.0090236
-0.00932016
-0.00962739
-0.00993476
-0.0102512
-0.0105733
-0.0108942
-0.011233
-0.0115595
-0.0119034
-0.0122458
-0.0125762
-0.0129244
0.0208412
0.01831
0.0118495
0.00636483
0.00326786
0.00207312
0.0020318
0.00242634
0.00263971
0.00237992
0.00203423
0.00194812
0.00183264
0.00156625
0.00139791
0.00129809
0.00117939
0.00116883
0.00121672
0.00118622
0.00118372
0.00128338
0.00134146
0.0013004
0.00127151
0.00129592
0.00130625
0.00127379
0.00122957
0.00119005
0.0011445
0.0010861
0.00101858
0.000945022
0.000865101
0.00077841
0.000685588
0.000587385
0.000484264
0.000376586
0.000264678
0.000148806
2.91715e-05
-9.40785e-05
-0.000220831
-0.000350998
-0.000484515
-0.000621327
-0.000761396
-0.000904701
-0.00105122
-0.00120095
-0.00135389
-0.00151005
-0.00166943
-0.00183205
-0.00199794
-0.00216713
-0.00233963
-0.00251548
-0.00269473
-0.00287742
-0.00306358
-0.00325326
-0.00344651
-0.00364339
-0.00384394
-0.00404823
-0.00425631
-0.00446824
-0.00468409
-0.00490392
-0.0051278
-0.00535579
-0.00558797
-0.00582441
-0.00606518
-0.00631038
-0.00656003
-0.0068143
-0.00707313
-0.00733685
-0.00760508
-0.00787875
-0.00815647
-0.00844076
-0.00872789
-0.0090236
-0.00932016
-0.00962739
-0.00993476
-0.0102512
-0.0105733
-0.0108942
-0.011233
-0.0115595
-0.0119034
-0.0122458
-0.0125762
-0.0129246
0.0200668
0.0178814
0.0119664
0.00672641
0.00356539
0.00220293
0.00207977
0.00246423
0.00267843
0.00241885
0.00207396
0.00198399
0.00186393
0.00159659
0.00142729
0.00132505
0.0012032
0.00118827
0.0012332
0.00120275
0.00119885
0.00129341
0.00134718
0.00130556
0.00127709
0.00130036
0.00130899
0.00127566
0.00123119
0.00119137
0.00114541
0.0010867