/*--------------------------------*- C++ -*----------------------------------*\
| =========                 |                                                 |
| \\      /  F ield         | OpenFOAM: The Open Source CFD Toolbox           |
|  \\    /   O peration     | Version:  2106                                  |
|   \\  /    A nd           | Website:  www.openfoam.com                      |
|    \\/     M anipulation  |                                                 |
\*---------------------------------------------------------------------------*/
FoamFile
{
    version     2.0;
    format      ascii;
    arch        "LSB;label=32;scalar=64";
    class       surfaceScalarField;
    location    "0.095";
    object      phi;
}
// * * * * * * * * * * * * * * * * * * * * * * * * * * * * * * * * * * * * * //

dimensions      [0 3 -1 0 0 0 0];

oriented        oriented;

internalField   nonuniform List<scalar> 
19000
(
1.19305e-06
-1.0347e-06
1.15607e-06
1.6779e-06
1.18855e-06
-1.16564e-06
1.17316e-06
-1.21446e-07
1.17022e-06
6.91159e-07
1.16808e-06
-2.04747e-07
1.18302e-06
-5.91734e-07
1.169e-06
-1.33865e-07
1.17138e-06
4.40562e-07
1.15936e-06
1.27161e-07
1.17131e-06
-1.54787e-07
1.1637e-06
-3.8806e-07
1.17228e-06
-1.24937e-07
1.14914e-06
-6.0246e-08
1.16589e-06
2.25282e-07
1.16231e-06
2.62429e-07
1.15075e-06
-1.78061e-08
1.14256e-06
-8.20992e-08
1.15763e-06
-4.51534e-08
-1.93209e-07
1.11143e-06
1.25033e-06
-1.06077e-06
1.21863e-06
1.7096e-06
1.25187e-06
-1.19889e-06
1.23341e-06
-1.02983e-07
1.22618e-06
6.98382e-07
1.22584e-06
-2.04401e-07
1.23938e-06
-6.05273e-07
1.22847e-06
-1.22961e-07
1.22491e-06
4.44124e-07
1.22055e-06
1.3152e-07
1.2264e-06
-1.60639e-07
1.22215e-06
-3.83802e-07
1.22419e-06
-1.26986e-07
1.21155e-06
-4.76049e-08
1.21204e-06
2.248e-07
1.23213e-06
2.42336e-07
1.20271e-06
1.16094e-08
1.21308e-06
-9.24624e-08
1.20149e-06
-3.35629e-08
-1.87565e-07
1.19584e-06
1.30676e-06
-1.08475e-06
1.28646e-06
1.7299e-06
1.31235e-06
-1.22477e-06
1.30108e-06
-9.17197e-08
1.28877e-06
7.10694e-07
1.28866e-06
-2.0429e-07
1.29643e-06
-6.13045e-07
1.29187e-06
-1.18398e-07
1.28411e-06
4.51889e-07
1.28631e-06
1.29314e-07
1.28465e-06
-1.58972e-07
1.28425e-06
-3.83406e-07
1.2801e-06
-1.22833e-07
1.27564e-06
-4.31471e-08
1.26992e-06
2.30519e-07
1.29101e-06
2.21244e-07
1.27044e-06
3.21775e-08
1.26988e-06
-9.18997e-08
1.26709e-06
-3.07721e-08
-1.72338e-07
1.25186e-06
1.36384e-06
-1.10449e-06
1.35556e-06
1.73818e-06
1.37027e-06
-1.23947e-06
1.36915e-06
-9.06056e-08
1.35613e-06
7.23713e-07
1.35358e-06
-2.01742e-07
1.35377e-06
-6.1323e-07
1.35562e-06
-1.20246e-07
1.34983e-06
4.57675e-07
1.35307e-06
1.2607e-07
1.34658e-06
-1.52474e-07
1.34592e-06
-3.82749e-07
1.3412e-06
-1.18116e-07
1.33941e-06
-4.13525e-08
1.33705e-06
2.32878e-07
1.35119e-06
2.07103e-07
1.34132e-06
4.20442e-08
1.33387e-06
-8.44463e-08
1.33033e-06
-2.72342e-08
-1.55313e-07
1.31331e-06
1.42223e-06
-1.11836e-06
1.42458e-06
1.73583e-06
1.42731e-06
-1.2422e-06
1.43426e-06
-9.75611e-08
1.42552e-06
7.32457e-07
1.41907e-06
-1.95294e-07
1.41287e-06
-6.07032e-07
1.41893e-06
-1.26297e-07
1.41925e-06
4.57356e-07
1.42043e-06
1.24887e-07
1.41148e-06
-1.4353e-07
1.40809e-06
-3.79354e-07
1.40495e-06
-1.14981e-07
1.40495e-06
-4.13475e-08
1.40664e-06
2.31188e-07
1.41616e-06
1.97584e-07
1.41064e-06
4.75637e-08
1.40196e-06
-7.57659e-08
1.39508e-06
-2.0356e-08
-1.36831e-07
1.3766e-06
1.48303e-06
-1.12571e-06
1.49352e-06
1.72533e-06
1.48629e-06
-1.23496e-06
1.49664e-06
-1.07917e-07
1.49518e-06
7.33914e-07
1.48575e-06
-1.85857e-07
1.47524e-06
-5.96528e-07
1.48289e-06
-1.33939e-07
1.4893e-06
4.50943e-07
1.48891e-06
1.25274e-07
1.47884e-06
-1.33462e-07
1.47271e-06
-3.73221e-07
1.47033e-06
-1.12601e-07
1.47207e-06
-4.30875e-08
1.47667e-06
2.26594e-07
1.48373e-06
1.90518e-07
1.4797e-06
5.15949e-08
1.47104e-06
-6.71093e-08
1.46323e-06
-1.25415e-08
-1.15898e-07
1.4423e-06
1.54742e-06
-1.12692e-06
1.56353e-06
1.70923e-06
1.54956e-06
-1.221e-06
1.55903e-06
-1.17384e-07
1.56498e-06
7.27965e-07
1.55497e-06
-1.75849e-07
1.54169e-06
-5.8325e-07
1.54878e-06
-1.41034e-07
1.55915e-06
4.4058e-07
1.559e-06
1.25426e-07
1.54892e-06
-1.23382e-07
1.54089e-06
-3.65195e-07
1.53814e-06
-1.09851e-07
1.54058e-06
-4.55324e-08
1.54722e-06
2.19956e-07
1.55303e-06
1.84711e-07
1.54996e-06
5.46623e-08
1.54124e-06
-5.83917e-08
1.53449e-06
-5.79107e-09
-9.31723e-08
1.51177e-06
1.6163e-06
-1.12309e-06
1.63609e-06
1.68944e-06
1.61822e-06
-1.20313e-06
1.6246e-06
-1.23765e-07
1.63615e-06
7.16413e-07
1.62772e-06
-1.67411e-07
1.61256e-06
-5.68091e-07
1.61778e-06
-1.46258e-07
1.63005e-06
4.28313e-07
1.6314e-06
1.24074e-07
1.62223e-06
-1.14209e-07
1.61306e-06
-3.56025e-07
1.60944e-06
-1.0623e-07
1.61131e-06
-4.74042e-08
1.61924e-06
2.12024e-07
1.62452e-06
1.7943e-07
1.62259e-06
5.65887e-08
1.61357e-06
-4.93682e-08
1.60862e-06
-8.41871e-10
-7.01108e-08
1.58556e-06
1.69006e-06
-1.11557e-06
1.71236e-06
1.66714e-06
1.69231e-06
-1.18308e-06
1.6955e-06
-1.26955e-07
1.71043e-06
7.01483e-07
1.70441e-06
-1.61398e-07
1.68796e-06
-5.51641e-07
1.69094e-06
-1.49231e-07
1.70391e-06
4.15338e-07
1.70706e-06
1.20929e-07
1.69917e-06
-1.06322e-07
1.68931e-06
-3.46161e-07
1.68489e-06
-1.01814e-07
1.68542e-06
-4.79302e-08
1.6941e-06
2.0334e-07
1.69915e-06
1.74385e-07
1.69857e-06
5.71611e-08
1.68903e-06
-3.98218e-08
1.6857e-06
2.48631e-09
-4.80517e-08
1.66364e-06
1.76871e-06
-1.10556e-06
1.79293e-06
1.64292e-06
1.7714e-06
-1.16155e-06
1.77243e-06
-1.27994e-07
1.78901e-06
6.84905e-07
1.78518e-06
-1.57564e-07
1.76787e-06
-5.34336e-07
1.76894e-06
-1.50302e-07
1.78214e-06
4.02143e-07
1.78671e-06
1.16353e-07
1.77998e-06
-9.9591e-08
1.76961e-06
-3.35784e-07
1.76479e-06
-9.70006e-08
1.7638e-06
-4.69324e-08
1.773e-06
1.94135e-07
1.77775e-06
1.6964e-07
1.77852e-06
5.63854e-08
1.76838e-06
-2.96851e-08
1.76598e-06
4.88699e-09
-2.79072e-08
1.74584e-06
1.85207e-06
-1.09388e-06
1.87796e-06
1.61703e-06
1.85511e-06
-1.1387e-06
1.85521e-06
-1.28092e-07
1.87238e-06
6.67729e-07
1.87007e-06
-1.55251e-07
1.85219e-06
-5.16458e-07
1.85199e-06
-1.50104e-07
1.86529e-06
3.88844e-07
1.87074e-06
1.10908e-07
1.86483e-06
-9.36858e-08
1.85395e-06
-3.24904e-07
1.84919e-06
-9.22428e-08
1.84683e-06
-4.4567e-08
1.85655e-06
1.84415e-07
1.86078e-06
1.65407e-07
1.86267e-06
5.44968e-08
1.85209e-06
-1.9103e-08
1.84978e-06
7.19365e-09
-1.01907e-08
1.83206e-06
1.93997e-06
-1.08101e-06
1.96747e-06
1.58953e-06
1.94324e-06
-1.11447e-06
1.9433e-06
-1.28145e-07
1.96052e-06
6.50505e-07
1.95917e-06
-1.53899e-07
1.94087e-06
-4.98157e-07
1.93995e-06
-1.49187e-07
1.95338e-06
3.75421e-07
1.95921e-06
1.05071e-07
1.95386e-06
-8.83303e-08
1.9424e-06
-3.13451e-07
1.93806e-06
-8.78971e-08
1.93455e-06
-4.10551e-08
1.94484e-06
1.74122e-07
1.94841e-06
1.61839e-07
1.95103e-06
5.18782e-08
1.94034e-06
-8.41363e-09
1.93739e-06
1.01403e-08
4.84534e-09
1.92235e-06
2.03235e-06
-1.06717e-06
2.06145e-06
1.56044e-06
2.03579e-06
-1.08881e-06
2.03632e-06
-1.28671e-07
2.05332e-06
6.33505e-07
2.05261e-06
-1.53189e-07
2.03395e-06
-4.79498e-07
2.03264e-06
-1.47882e-07
2.04623e-06
3.61829e-07
2.05215e-06
9.91509e-08
2.04722e-06
-8.33925e-08
2.03511e-06
-3.01343e-07
2.0314e-06
-8.41878e-08
2.02691e-06
-3.6562e-08
2.03778e-06
1.6325e-07
2.04068e-06
1.58935e-07
2.04358e-06
4.89824e-08
2.03323e-06
1.93344e-09
2.02916e-06
1.42148e-08
1.71773e-08
2.01682e-06
2.12928e-06
-1.05245e-06
2.16e-06
1.52971e-06
2.13285e-06
-1.06166e-06
2.1341e-06
-1.29922e-07
2.15073e-06
6.16875e-07
2.15053e-06
-1.52991e-07
2.13155e-06
-4.60513e-07
2.13001e-06
-1.4634e-07
2.1438e-06
3.48033e-07
2.14962e-06
9.33358e-08
2.14508e-06
-7.88583e-08
2.13225e-06
-2.88512e-07
2.12929e-06
-8.12307e-08
2.12394e-06
-3.12045e-08
2.13529e-06
1.51897e-07
2.13769e-06
1.56538e-07
2.14039e-06
4.6281e-08
2.13084e-06
1.1479e-08
2.12549e-06
1.95653e-08
2.70457e-08
2.11562e-06
2.23089e-06
-1.03686e-06
2.26327e-06
1.49734e-06
2.2346e-06
-1.03299e-06
2.23669e-06
-1.32016e-07
2.25286e-06
6.00702e-07
2.25314e-06
-1.53272e-07
2.23386e-06
-4.4123e-07
2.23212e-06
-1.44599e-07
2.24615e-06
3.34004e-07
2.25173e-06
8.77514e-08
2.24765e-06
-7.47788e-08
2.23405e-06
-2.74909e-07
2.23188e-06
-7.90638e-08
2.22578e-06
-2.51029e-08
2.23741e-06
1.40272e-07
2.23958e-06
1.54366e-07
2.24162e-06
4.42452e-08
2.23326e-06
1.98339e-08
2.22676e-06
2.60631e-08
3.48938e-08
2.21891e-06
2.33739e-06
-1.02037e-06
2.37144e-06
1.46329e-06
2.34124e-06
-1.00279e-06
2.34423e-06
-1.35012e-07
2.35989e-06
5.8505e-07
2.36064e-06
-1.54028e-07
2.3411e-06
-4.21691e-07
2.33914e-06
-1.42642e-07
2.35344e-06
3.19704e-07
2.35869e-06
8.25052e-08
2.35514e-06
-7.1231e-08
2.34075e-06
-2.60513e-07
2.33934e-06
-7.76614e-08
2.33266e-06
-1.84235e-08
2.34426e-06
1.2868e-07
2.34655e-06
1.52074e-07
2.3475e-06
4.32945e-08
2.34059e-06
2.67476e-08
2.33325e-06
3.34018e-08
4.12559e-08
2.32689e-06
2.449e-06
-1.00297e-06
2.48475e-06
1.42753e-06
2.45301e-06
-9.71046e-07
2.45694e-06
-1.38941e-07
2.47202e-06
5.69966e-07
2.47324e-06
-1.5525e-07
2.45351e-06
-4.01957e-07
2.45129e-06
-1.40422e-07
2.4659e-06
3.05091e-07
2.47071e-06
7.77026e-08
2.46777e-06
-6.82897e-08
2.45259e-06
-2.45342e-07
2.45186e-06
-7.69318e-08
2.44484e-06
-1.14002e-08
2.45603e-06
1.17493e-07
2.45879e-06
1.49308e-07
2.45834e-06
4.37504e-08
2.45294e-06
3.21494e-08
2.4452e-06
4.11406e-08
4.66776e-08
2.43978e-06
2.56596e-06
-9.84642e-07
2.60343e-06
1.39007e-06
2.57016e-06
-9.37775e-07
2.57504e-06
-1.4382e-07
2.58952e-06
5.55484e-07
2.59119e-06
-1.56918e-07
2.57134e-06
-3.82111e-07
2.56879e-06
-1.3787e-07
2.58377e-06
2.90108e-07
2.58803e-06
7.34483e-08
2.58575e-06
-6.60105e-08
2.56987e-06
-2.29463e-07
2.56965e-06
-7.6716e-08
2.56259e-06
-4.33166e-09
2.57296e-06
1.0712e-07
2.5765e-06
1.45768e-07
2.57456e-06
4.56911e-08
2.57045e-06
3.62551e-08
2.56283e-06
4.87595e-08
5.16195e-08
2.55789e-06
2.68855e-06
-9.6536e-07
2.72773e-06
1.35088e-06
2.69295e-06
-9.02995e-07
2.69878e-06
-1.49652e-07
2.71265e-06
5.41621e-07
2.71472e-06
-1.58988e-07
2.69487e-06
-3.62262e-07
2.6919e-06
-1.34897e-07
2.70731e-06
2.74691e-07
2.71092e-06
6.98404e-08
2.70933e-06
-6.44174e-08
2.69287e-06
-2.13002e-07
2.69294e-06
-7.67879e-08
2.68616e-06
2.44267e-09
2.69533e-06
9.79525e-08
2.69984e-06
1.4126e-07
2.69664e-06
4.88883e-08
2.69335e-06
3.95451e-08
2.68635e-06
5.57619e-08
5.63878e-08
2.68158e-06
2.81702e-06
-9.45111e-07
2.85792e-06
1.30998e-06
2.82166e-06
-8.66738e-07
2.82844e-06
-1.56426e-07
2.84168e-06
5.28378e-07
2.84408e-06
-1.61392e-07
2.82436e-06
-3.42542e-07
2.82087e-06
-1.31402e-07
2.83678e-06
2.58776e-07
2.83966e-06
6.69604e-08
2.83874e-06
-6.34909e-08
2.82188e-06
-1.96149e-07
2.82196e-06
-7.68681e-08
2.81584e-06
8.56915e-09
2.82346e-06
9.03318e-08
2.82899e-06
1.35727e-07
2.82495e-06
5.29287e-08
2.82194e-06
4.25523e-08
2.81592e-06
6.1783e-08
6.11023e-08
2.81121e-06
2.95166e-06
-9.23879e-07
2.99426e-06
1.26739e-06
2.95658e-06
-8.29052e-07
2.96427e-06
-1.64116e-07
2.97691e-06
5.15734e-07
2.97956e-06
-1.64039e-07
2.96012e-06
-3.23109e-07
2.95599e-06
-1.27268e-07
2.97246e-06
2.42305e-07
2.97456e-06
6.48564e-08
2.97423e-06
-6.31519e-08
2.95724e-06
-1.79163e-07
2.957e-06
-7.66299e-08
2.95186e-06
1.37108e-08
2.95771e-06
8.44801e-08
2.96412e-06
1.29318e-07
2.95975e-06
5.72923e-08
2.95661e-06
4.56953e-08
2.95172e-06
6.66724e-08
6.57051e-08
2.94712e-06
3.09278e-06
-9.01657e-07
3.13705e-06
1.22311e-06
3.098e-06
-7.89998e-07
3.10656e-06
-1.72679e-07
3.11865e-06
5.03652e-07
3.12142e-06
-1.6681e-07
3.10245e-06
-3.04144e-07
3.09756e-06
-1.22372e-07
3.11462e-06
2.25239e-07
3.11595e-06
6.35282e-08
3.11605e-06
-6.32556e-08
3.09924e-06
-1.62352e-07
3.09836e-06
-7.57443e-08
3.09445e-06
1.76163e-08
3.09854e-06
8.03903e-08
3.10542e-06
1.22436e-07
3.1013e-06
6.14198e-08
3.09779e-06
4.91981e-08
3.09395e-06
7.05158e-08
7.00128e-08
3.08964e-06
3.24069e-06
-8.7844e-07
3.2866e-06
1.17721e-06
3.24626e-06
-7.4966e-07
3.25563e-06
-1.82049e-07
3.26721e-06
4.9207e-07
3.26996e-06
-1.6956e-07
3.25167e-06
-2.8585e-07
3.24589e-06
-1.16594e-07
3.26356e-06
2.0757e-07
3.26417e-06
6.29173e-08
3.26451e-06
-6.35941e-08
3.24822e-06
-1.46067e-07
3.24637e-06
-7.38923e-08
3.24382e-06
2.01627e-08
3.24639e-06
7.7824e-08
3.25323e-06
1.156e-07
3.24976e-06
6.48806e-08
3.24593e-06
5.30296e-08
3.24288e-06
7.35703e-08
7.38321e-08
3.23906e-06
3.39572e-06
-8.54232e-07
3.4432e-06
1.12973e-06
3.40168e-06
-7.08138e-07
3.41177e-06
-1.92142e-07
3.42294e-06
4.80902e-07
3.4255e-06
-1.7212e-07
3.40809e-06
-2.68439e-07
3.40132e-06
-1.09827e-07
3.41956e-06
1.89335e-07
3.41958e-06
6.28974e-08
3.41988e-06
-6.38969e-08
3.40449e-06
-1.30674e-07
3.40141e-06
-7.08118e-08
3.40018e-06
2.13918e-08
3.40164e-06
7.63653e-08
3.40793e-06
1.0931e-07
3.40537e-06
6.74387e-08
3.40141e-06
5.69908e-08
3.39886e-06
7.61123e-08
7.70617e-08
3.39563e-06
3.55822e-06
-8.2904e-07
3.6072e-06
1.08075e-06
3.56462e-06
-6.65555e-07
3.57533e-06
-2.02852e-07
3.58619e-06
4.70039e-07
3.58836e-06
-1.74293e-07
3.57206e-06
-2.52135e-07
3.56422e-06
-1.01984e-07
3.58293e-06
1.70618e-07
3.58255e-06
6.32757e-08
3.5825e-06
-6.38411e-08
3.56835e-06
-1.16526e-07
3.5639e-06
-6.63617e-08
3.56377e-06
2.15181e-08
3.56463e-06
7.55121e-08
3.57e-06
1.03934e-07
3.56832e-06
6.91192e-08
3.56456e-06
6.0755e-08
3.56231e-06
7.83643e-08
7.96994e-08
3.55967e-06
3.72855e-06
-8.02882e-07
3.77894e-06
1.03036e-06
3.73544e-06
-6.22054e-07
3.74663e-06
-2.14045e-07
3.75733e-06
4.59347e-07
3.7589e-06
-1.75865e-07
3.74392e-06
-2.37158e-07
3.73495e-06
-9.30151e-08
3.754e-06
1.51566e-07
3.75349e-06
6.37935e-08
3.75272e-06
-6.30723e-08
3.74011e-06
-1.0392e-07
3.73432e-06
-6.05713e-08
3.73491e-06
2.09342e-08
3.73566e-06
7.47552e-08
3.73997e-06
9.96248e-08
3.73892e-06
7.01671e-08
3.73568e-06
6.3995e-08
3.73361e-06
8.04347e-08
8.18024e-08
3.73151e-06
3.90709e-06
-7.75783e-07
3.95878e-06
9.78663e-07
3.91454e-06
-5.77806e-07
3.92606e-06
-2.25565e-07
3.93674e-06
4.48664e-07
3.93748e-06
-1.76605e-07
3.92404e-06
-2.23717e-07
3.91394e-06
-8.29172e-08
3.93311e-06
1.324e-07
3.93277e-06
6.4125e-08
3.93094e-06
-6.12376e-08
3.92006e-06
-9.3038e-08
3.91314e-06
-5.36561e-08
3.91395e-06
2.0125e-08
3.91502e-06
7.36845e-08
3.91831e-06
9.63329e-08
3.91758e-06
7.08969e-08
3.91505e-06
6.65316e-08
3.91321e-06
8.22755e-08
8.34694e-08
3.91154e-06
4.09425e-06
-7.47779e-07
4.14711e-06
9.25798e-07
4.10231e-06
-5.33005e-07
4.11397e-06
-2.37226e-07
4.12483e-06
4.37804e-07
4.12449e-06
-1.76268e-07
4.11277e-06
-2.11994e-07
4.1016e-06
-7.175e-08
4.1206e-06
1.13406e-07
4.12081e-06
6.39123e-08
4.1176e-06
-5.8025e-08
4.10848e-06
-8.39229e-08
4.10083e-06
-4.59991e-08
4.10135e-06
1.96047e-08
4.10299e-06
7.20456e-08
4.10549e-06
9.38314e-08
4.10478e-06
7.16022e-08
4.10296e-06
6.83567e-08
4.10149e-06
8.37441e-08
8.48016e-08
4.10016e-06
4.29044e-06
-7.18916e-07
4.34432e-06
8.7192e-07
4.29919e-06
-4.87872e-07
4.31078e-06
-2.48818e-07
4.32202e-06
4.26556e-07
4.32037e-06
-1.74612e-07
4.3105e-06
-2.02127e-07
4.29839e-06
-5.96414e-08
4.31687e-06
9.4935e-08
4.31798e-06
6.27995e-08
4.3132e-06
-5.32428e-08
4.30569e-06
-7.64121e-08
4.29782e-06
-3.81293e-08
4.29759e-06
1.98298e-08
4.29982e-06
6.98131e-08
4.30194e-06
9.17191e-08
4.30101e-06
7.2529e-08
4.29978e-06
6.95837e-08
4.29883e-06
8.4691e-08
8.58543e-08
4.29778e-06
4.49611e-06
-6.89252e-07
4.55082e-06
8.17207e-07
4.50561e-06
-4.42657e-07
4.51689e-06
-2.60101e-07
4.52876e-06
4.1469e-07
4.52555e-06
-1.71407e-07
4.51762e-06
-1.94199e-07
4.50478e-06
-4.67982e-08
4.52232e-06
7.73955e-08
4.52466e-06
6.04594e-08
4.51827e-06
-4.6852e-08
4.51201e-06
-7.01596e-08
4.50451e-06
-3.06277e-08
4.50325e-06
2.1089e-08
4.50585e-06
6.72145e-08
4.50803e-06
8.95403e-08
4.50682e-06
7.37381e-08
4.50594e-06
7.04673e-08
4.50563e-06
8.50028e-08
8.66183e-08
4.50486e-06
4.71172e-06
-6.58857e-07
4.76706e-06
7.61867e-07
4.72204e-06
-3.97635e-07
4.73275e-06
-2.70811e-07
4.74548e-06
4.01958e-07
4.74052e-06
-1.66444e-07
4.73454e-06
-1.88221e-07
4.72124e-06
-3.35019e-08
4.73741e-06
6.123e-08
4.74124e-06
5.6632e-08
4.73337e-06
-3.89875e-08
4.72788e-06
-6.46666e-08
4.72128e-06
-2.40346e-08
4.71894e-06
2.34329e-08
4.72153e-06
6.46226e-08
4.72409e-06
8.69854e-08
4.72278e-06
7.50493e-08
4.72192e-06
7.13274e-08
4.72224e-06
8.46755e-08
8.70179e-08
4.72184e-06
4.93776e-06
-6.27814e-07
4.99349e-06
7.06131e-07
4.94897e-06
-3.53109e-07
4.95881e-06
-2.8066e-07
4.97266e-06
3.8811e-07
4.96578e-06
-1.59561e-07
4.96168e-06
-1.8412e-07
4.94829e-06
-2.01115e-08
4.96263e-06
4.68912e-08
4.96811e-06
5.11528e-08
4.95906e-06
-2.99414e-08
4.95376e-06
-5.93676e-08
4.94848e-06
-1.87548e-08
4.94525e-06
2.66626e-08
4.94738e-06
6.2494e-08
4.95046e-06
8.39084e-08
4.94935e-06
7.61566e-08
4.94829e-06
7.23833e-08
4.94909e-06
8.38782e-08
8.69372e-08
4.94917e-06
5.17472e-06
-5.96222e-07
5.2306e-06
6.50259e-07
5.1869e-06
-3.09408e-07
5.19558e-06
-2.89342e-07
5.21078e-06
3.72906e-07
5.20188e-06
-1.50658e-07
5.19949e-06
-1.81728e-07
5.18643e-06
-7.04929e-09
5.19853e-06
3.47906e-08
5.20567e-06
4.40136e-08
5.19589e-06
-2.01692e-08
5.19023e-06
-5.37092e-08
5.18644e-06
-1.49593e-08
5.18274e-06
3.03586e-08
5.18402e-06
6.12143e-08
5.18751e-06
8.04218e-08
5.18698e-06
7.66811e-08
5.18568e-06
7.36889e-08
5.18664e-06
8.29126e-08
8.6299e-08
5.18728e-06
5.42316e-06
-5.64193e-07
5.47888e-06
5.94535e-07
5.43636e-06
-2.66883e-07
5.44356e-06
-2.96539e-07
5.46033e-06
3.56129e-07
5.44939e-06
-1.39716e-07
5.44844e-06
-1.80778e-07
5.43619e-06
5.20659e-09
5.44568e-06
2.5295e-08
5.45435e-06
3.53473e-08
5.44443e-06
-1.02499e-08
5.4379e-06
-4.71775e-08
5.43556e-06
-1.26212e-08
5.43193e-06
3.3982e-08
5.43211e-06
6.10404e-08
5.43571e-06
7.68196e-08
5.43609e-06
7.63066e-08
5.43468e-06
7.50899e-08
5.43548e-06
8.21167e-08
8.51447e-08
5.43663e-06
5.68362e-06
-5.31853e-07
5.73888e-06
5.3927e-07
5.6979e-06
-2.25898e-07
5.7033e-06
-3.01938e-07
5.72182e-06
3.37608e-07
5.70891e-06
-1.2681e-07
5.70905e-06
-1.80918e-07
5.69809e-06
1.61633e-08
5.70473e-06
1.86577e-08
5.71461e-06
2.54652e-08
5.7052e-06
-8.32423e-10
5.69744e-06
-3.94245e-08
5.69625e-06
-1.14312e-08
5.6933e-06
3.69386e-08
5.69234e-06
6.19938e-08
5.69563e-06
7.35344e-08
5.69704e-06
7.48904e-08
5.69587e-06
7.62593e-08
5.69626e-06
8.17279e-08
8.36806e-08
5.69773e-06
5.95668e-06
-4.99343e-07
6.01116e-06
4.84796e-07
5.97209e-06
-1.86829e-07
5.97538e-06
-3.05232e-07
5.99575e-06
3.17238e-07
5.98107e-06
-1.12126e-07
5.98185e-06
-1.81701e-07
5.97269e-06
2.53286e-08
5.97635e-06
1.49953e-08
5.98698e-06
1.48317e-08
5.97871e-06
7.44063e-09
5.96959e-06
-3.03048e-08
5.96906e-06
-1.09043e-08
5.96725e-06
3.87559e-08
5.96541e-06
6.38297e-08
5.96792e-06
7.10193e-08
5.97026e-06
7.25583e-08
5.96976e-06
7.67532e-08
5.9697e-06
8.17901e-08
8.22292e-08
5.97115e-06
6.24296e-06
-4.66818e-07
6.2963e-06
4.31462e-07
6.25952e-06
-1.5005e-07
6.26043e-06
-3.06147e-07
6.28268e-06
2.94991e-07
6.26651e-06
-9.59538e-08
6.26743e-06
-1.82627e-07
6.26049e-06
3.22732e-08
6.26123e-06
1.42502e-08
6.27202e-06
4.04232e-09
6.26546e-06
1.40012e-08
6.25507e-06
-1.99123e-08
6.2546e-06
-1.04313e-08
6.25422e-06
3.91339e-08
6.25195e-06
6.61003e-08
6.25335e-06
6.96201e-08
6.25623e-06
6.96754e-08
6.25681e-06
7.61742e-08
6.25649e-06
8.21136e-08
8.11311e-08
6.25758e-06
6.54309e-06
-4.34442e-07
6.59492e-06
3.79632e-07
6.5608e-06
-1.15927e-07
6.5591e-06
-3.0445e-07
6.58315e-06
2.7094e-07
6.5659e-06
-7.86955e-08
6.56643e-06
-1.83159e-07
6.56203e-06
3.66726e-08
6.56011e-06
1.61711e-08
6.57037e-06
-6.2219e-09
6.56595e-06
1.84236e-08
6.55461e-06
-8.57273e-09
6.55357e-06
-9.39424e-09
6.55468e-06
3.80267e-08
6.55254e-06
6.82367e-08
6.55269e-06
6.94717e-08
6.55562e-06
6.67505e-08
6.55742e-06
7.43685e-08
6.55727e-06
8.22664e-08
8.06153e-08
6.55779e-06
6.85774e-06
-4.02392e-07
6.9077e-06
3.29672e-07
6.87657e-06
-8.47959e-08
6.87209e-06
-2.99973e-07
6.89777e-06
2.45263e-07
6.87992e-06
-6.08493e-08
6.87951e-06
-1.82746e-07
6.87785e-06
3.83317e-08
6.87369e-06
2.03344e-08
6.88275e-06
-1.52866e-08
6.88067e-06
2.05103e-08
6.86892e-06
3.1711e-09
6.86678e-06
-7.25464e-09
6.86917e-06
3.56369e-08
6.86774e-06
6.96699e-08
6.86676e-06
7.04544e-08
6.8692e-06
6.43081e-08
6.87206e-06
7.15048e-08
6.87262e-06
8.17045e-08
8.06741e-08
6.87257e-06
7.18759e-06
-3.70849e-07
7.23532e-06
2.81946e-07
7.20748e-06
-5.69562e-08
7.20014e-06
-2.92636e-07
7.22715e-06
2.18255e-07
7.20928e-06
-4.29766e-08
7.20742e-06
-1.80889e-07
7.20852e-06
3.72318e-08
7.20271e-06
2.61472e-08
7.20992e-06
-2.24967e-08
7.21014e-06
2.02927e-08
7.19871e-06
1.45917e-08
7.19507e-06
-3.6092e-09
7.19833e-06
3.23758e-08
7.19806e-06
6.99435e-08
7.1963e-06
7.22157e-08
7.19784e-06
6.2765e-08
7.20133e-06
6.80126e-08
7.20304e-06
7.99967e-08
8.09992e-08
7.20271e-06
7.53338e-06
-3.4e-07
7.57852e-06
2.36804e-07
7.55421e-06
-3.2651e-08
7.54404e-06
-2.82459e-07
7.57197e-06
1.90322e-07
7.55467e-06
-2.56776e-08
7.55094e-06
-1.77163e-07
7.55464e-06
3.35347e-08
7.54789e-06
3.28963e-08
7.55272e-06
-2.73232e-08
7.55502e-06
1.79916e-08
7.54458e-06
2.50274e-08
7.53934e-06
1.63237e-09
7.54288e-06
2.88331e-08
7.54404e-06
6.87884e-08
7.54201e-06
7.42491e-08
7.54245e-06
6.23245e-08
7.54601e-06
6.44444e-08
7.54897e-06
7.70373e-08
8.10185e-08
7.54896e-06
7.89584e-06
-3.10029e-07
7.93807e-06
1.94572e-07
7.91747e-06
-1.20521e-08
7.9046e-06
-2.69584e-07
7.93295e-06
1.61972e-07
7.91682e-06
-9.55233e-09
7.91092e-06
-1.71256e-07
7.91688e-06
2.75714e-08
7.90995e-06
3.98243e-08
7.91207e-06
-2.9436e-08
7.916e-06
1.4062e-08
7.90718e-06
3.38384e-08
7.9005e-06
8.31222e-09
7.90367e-06
2.56673e-08
7.90628e-06
6.61764e-08
7.90454e-06
7.59917e-08
7.90393e-06
6.29337e-08
7.90705e-06
6.13251e-08
7.91098e-06
7.31112e-08
8.00877e-08
7.91191e-06
8.27577e-06
-2.81116e-07
8.31481e-06
1.55535e-07
8.298e-06
4.7532e-09
8.28268e-06
-2.54266e-07
8.31088e-06
1.33777e-07
8.29648e-06
4.84748e-09
8.28824e-06
-1.63017e-07
8.29597e-06
1.98359e-08
8.2896e-06
4.61938e-08
8.28893e-06
-2.87595e-08
8.29383e-06
9.15403e-09
8.28716e-06
4.05101e-08
8.27943e-06
1.60453e-08
8.28162e-06
2.34797e-08
8.28546e-06
6.23293e-08
8.28454e-06
7.69178e-08
8.28315e-06
6.43258e-08
8.28545e-06
5.90234e-08
8.28979e-06
6.8772e-08
7.77865e-08
8.29209e-06
8.67398e-06
-2.5343e-07
8.70958e-06
1.19931e-07
8.69656e-06
1.7777e-08
8.67917e-06
-2.36874e-07
8.70658e-06
1.06366e-07
8.6944e-06
1.70248e-08
8.68385e-06
-1.52469e-07
8.69272e-06
1.09674e-08
8.68757e-06
5.13405e-08
8.68427e-06
-2.5459e-08
8.68943e-06
3.99654e-09
8.68517e-06
4.47689e-08
8.67696e-06
2.42597e-08
8.67773e-06
2.27055e-08
8.68239e-06
5.76682e-08
8.68267e-06
7.66379e-08
8.68088e-06
6.61158e-08
8.68223e-06
5.76752e-08
8.68639e-06
6.46093e-08
7.41603e-08
8.69002e-06
9.09132e-06
-2.27128e-07
9.12331e-06
8.79397e-08
9.11396e-06
2.71298e-08
9.09495e-06
-2.17869e-07
9.12097e-06
8.03493e-08
9.11136e-06
2.66356e-08
9.09873e-06
-1.39845e-07
9.10802e-06
1.67898e-09
9.1046e-06
5.47595e-08
9.09907e-06
-1.99329e-08
9.10374e-06
-6.68356e-10
9.10192e-06
4.65905e-08
9.09388e-06
3.2293e-08
9.09307e-06
2.35231e-08
9.09799e-06
5.27418e-08
9.09964e-06
7.49917e-08
9.09789e-06
6.78668e-08
9.09837e-06
5.71914e-08
9.10192e-06
6.10585e-08
6.97038e-08
9.10638e-06
9.52867e-06
-2.02342e-07
9.55695e-06
5.9668e-08
9.55105e-06
3.30299e-08
9.53096e-06
-1.97781e-07
9.55501e-06
5.62998e-08
9.54816e-06
3.34795e-08
9.53387e-06
-1.25553e-07
9.54284e-06
-7.2916e-09
9.54146e-06
5.61413e-08
9.53431e-06
-1.27783e-08
9.5378e-06
-4.16703e-09
9.5382e-06
4.6195e-08
9.53099e-06
3.95018e-08
9.52868e-06
2.58345e-08
9.53329e-06
4.81271e-08
9.53622e-06
7.20641e-08
9.53495e-06
6.91415e-08
9.53479e-06
5.73485e-08
9.53754e-06
5.83074e-08
6.51084e-08
9.54214e-06
9.98698e-06
-1.79183e-07
1.00115e-05
3.51527e-08
1.00087e-05
3.57836e-08
9.98813e-06
-1.77171e-07
1.00097e-05
3.47007e-08
1.00057e-05
3.7526e-08
9.99027e-06
-1.10139e-07
9.99823e-06
-1.52592e-08
9.99896e-06
5.54116e-08
9.99087e-06
-4.6795e-09
9.99277e-06
-6.07113e-09
9.99492e-06
4.40491e-08
9.98907e-06
4.53484e-08
9.9856e-06
2.93011e-08
9.98939e-06
4.43356e-08
9.99331e-06
6.8145e-08
9.99288e-06
6.95722e-08
9.99233e-06
5.78963e-08
9.99435e-06
5.62955e-08
6.09566e-08
9.9985e-06
1.04672e-05
-1.57733e-07
1.0488e-05
1.43507e-08
1.0488e-05
3.57875e-08
1.04674e-05
-1.56613e-07
1.04862e-05
1.59268e-08
1.04848e-05
3.89075e-08
1.04689e-05
-9.42181e-08
1.04753e-05
-2.16799e-08
1.0478e-05
5.27327e-08
1.04697e-05
3.62454e-09
1.04698e-05
-6.16593e-09
1.04731e-05
4.07642e-08
1.0469e-05
4.94696e-08
1.04648e-05
3.34353e-08
1.04675e-05
4.17065e-08
1.04719e-05
6.3655e-08
1.04726e-05
6.89367e-08
1.04719e-05
5.85744e-08
1.04734e-05
5.48309e-08
5.75481e-08
1.04768e-05
1.09703e-05
-1.38045e-07
1.09875e-05
-2.85782e-09
1.09898e-05
3.3501e-08
1.09699e-05
-1.36646e-07
1.09856e-05
2.08071e-10
1.09866e-05
3.79202e-08
1.09708e-05
-7.84202e-08
1.09753e-05
-2.62054e-08
1.09795e-05
4.84912e-08
1.09717e-05
1.14102e-08
1.097e-05
-4.46246e-09
1.09738e-05
3.6981e-08
1.09715e-05
5.17486e-08
1.09673e-05
3.76933e-08
1.09687e-05
4.03394e-08
1.09732e-05
5.90756e-08
1.0975e-05
6.72028e-08
1.09744e-05
5.9101e-08
1.09755e-05
5.37394e-08
5.48707e-08
1.09782e-05
1.14975e-05
-1.20136e-07
1.15113e-05
-1.66723e-08
1.15153e-05
2.94315e-08
1.14964e-05
-1.17756e-07
1.1509e-05
-1.23648e-08
1.1512e-05
3.49727e-08
1.14969e-05
-6.3348e-08
1.14993e-05
-2.86591e-08
1.15047e-05
4.31698e-08
1.14979e-05
1.81397e-08
1.14947e-05
-1.23748e-09
1.14984e-05
3.32999e-08
1.14978e-05
5.23092e-08
1.1494e-05
4.15669e-08
1.14942e-05
4.00917e-08
1.14984e-05
5.48589e-08
1.15011e-05
6.45275e-08
1.1501e-05
5.91946e-08
1.15018e-05
5.29114e-08
5.27216e-08
1.1504e-05
1.20497e-05
-1.03993e-07
1.20603e-05
-2.73433e-08
1.20657e-05
2.40854e-08
1.20483e-05
-1.00329e-07
1.20578e-05
-2.18561e-08
1.20622e-05
3.05654e-08
1.20483e-05
-4.95036e-08
1.20488e-05
-2.90862e-08
1.20546e-05
3.73187e-08
1.20493e-05
2.34597e-08
1.2045e-05
3.06449e-09
1.20481e-05
3.01979e-08
1.20489e-05
5.14556e-08
1.20458e-05
4.4664e-08
1.20453e-05
4.0658e-08
1.20488e-05
5.1327e-08
1.20521e-05
6.12202e-08
1.20527e-05
5.86439e-08
1.20533e-05
5.22384e-08
5.08897e-08
1.20552e-05
1.26282e-05
-8.9576e-08
1.2636e-05
-3.51776e-08
1.26421e-05
1.79655e-08
1.26265e-05
-8.46538e-08
1.26331e-05
-2.84683e-08
1.26384e-05
2.52434e-08
1.26262e-05
-3.72723e-08
1.26248e-05
-2.77033e-08
1.26306e-05
3.14799e-08
1.26269e-05
2.72167e-08
1.2622e-05
7.92887e-09
1.26242e-05
2.79692e-08
1.26261e-05
4.95947e-08
1.2624e-05
4.67539e-08
1.2623e-05
4.16747e-08
1.26257e-05
4.86063e-08
1.26293e-05
5.7658e-08
1.26305e-05
5.73702e-08
1.26312e-05
5.15665e-08
4.92548e-08
1.26328e-05
1.32342e-05
-7.6815e-08
1.32395e-05
-4.05121e-08
1.32459e-05
1.15234e-08
1.32322e-05
-7.08945e-08
1.32362e-05
-3.25077e-08
1.32419e-05
1.95246e-08
1.32315e-05
-2.68697e-08
1.32287e-05
-2.48708e-08
1.32341e-05
2.61014e-08
1.32318e-05
2.94747e-08
1.32269e-05
1.28443e-08
1.32282e-05
2.67148e-08
1.32306e-05
4.71607e-08
1.32296e-05
4.77772e-08
1.32285e-05
4.27856e-08
1.32304e-05
4.66473e-08
1.32339e-05
5.41833e-08
1.32358e-05
5.54472e-08
1.32367e-05
5.07308e-08
4.77524e-08
1.32382e-05
1.3869e-05
-6.56185e-08
1.38722e-05
-4.37007e-08
1.38785e-05
5.15603e-09
1.38667e-05
-5.91099e-08
1.38686e-05
-3.43578e-08
1.38742e-05
1.3877e-08
1.38657e-05
-1.837e-08
1.38619e-05
-2.10128e-08
1.38665e-05
2.15211e-08
1.38655e-05
3.04289e-08
1.3861e-05
1.73872e-08
1.38613e-05
2.63561e-08
1.38639e-05
4.45477e-08
1.38639e-05
4.78219e-08
1.3863e-05
4.36929e-08
1.38643e-05
4.52941e-08
1.38675e-05
5.10274e-08
1.38699e-05
5.30659e-08
1.3871e-05
4.96028e-08
4.63241e-08
1.38724e-05
1.45339e-05
-5.58749e-08
1.45353e-05
-4.5101e-08
1.45413e-05
-8.14845e-10
1.45314e-05
-4.92515e-08
1.45315e-05
-3.44402e-08
1.45367e-05
8.66784e-09
1.45301e-05
-1.16984e-08
1.45256e-05
-1.657e-08
1.45292e-05
1.79309e-08
1.45293e-05
3.03614e-08
1.45254e-05
2.12622e-08
1.45251e-05
2.66913e-08
1.45275e-05
4.20614e-08
1.45283e-05
4.70721e-08
1.45278e-05
4.41959e-08
1.45287e-05
4.4339e-08
1.45315e-05
4.82935e-08
1.45341e-05
5.04594e-08
1.45356e-05
4.81314e-08
4.49026e-08
1.4537e-05
1.52305e-05
-4.74589e-08
1.52304e-05
-4.50615e-08
1.52358e-05
-6.14354e-09
1.52277e-05
-4.11862e-08
1.52264e-05
-3.31939e-08
1.52309e-05
4.17653e-09
1.52259e-05
-6.68237e-09
1.52213e-05
-1.19425e-08
1.52238e-05
1.53797e-08
1.52246e-05
2.95879e-08
1.52216e-05
2.43086e-08
1.52208e-05
2.74605e-08
1.5223e-05
3.98908e-08
1.52243e-05
4.57574e-08
1.52243e-05
4.42031e-08
1.5225e-05
4.3568e-08
1.52274e-05
4.59793e-08
1.523e-05
4.78322e-08
1.52318e-05
4.63522e-08
4.34204e-08
1.52333e-05
1.59601e-05
-4.02382e-08
1.5959e-05
-4.39063e-08
1.59635e-05
-1.06651e-08
1.5957e-05
-3.472e-08
1.59548e-05
-3.10227e-08
1.59585e-05
5.59008e-10
1.59548e-05
-3.07333e-09
1.59504e-05
-7.45912e-09
1.59519e-05
1.37981e-08
1.59531e-05
2.84101e-08
1.59509e-05
2.64861e-08
1.595e-05
2.84052e-08
1.59518e-05
3.81075e-08
1.59534e-05
4.41064e-08
1.59539e-05
4.37153e-08
1.59547e-05
4.28031e-08
1.59567e-05
4.40112e-08
1.59592e-05
4.53218e-08
1.59612e-05
4.43584e-08
4.18313e-08
1.59628e-05
1.67244e-05
-3.40784e-08
1.67225e-05
-4.19273e-08
1.67261e-05
-1.42887e-08
1.6721e-05
-2.96211e-08
1.67182e-05
-2.82817e-08
1.67209e-05
-2.1319e-09
1.67185e-05
-5.87623e-10
1.67144e-05
-3.36297e-09
1.67151e-05
1.30354e-08
1.67164e-05
2.70798e-08
1.67151e-05
2.78502e-08
1.67142e-05
2.93057e-08
1.67156e-05
3.66907e-08
1.67174e-05
4.23097e-08
1.67183e-05
4.27978e-08
1.67192e-05
4.19232e-08
1.67209e-05
4.22827e-08
1.67233e-05
4.29926e-08
1.67254e-05
4.22597e-08
4.01246e-08
1.67271e-05
1.75251e-05
-2.88469e-08
1.75226e-05
-3.93786e-08
1.75253e-05
-1.69892e-08
1.75213e-05
-2.56424e-08
1.75183e-05
-2.52644e-08
1.75201e-05
-3.92906e-09
1.75184e-05
1.06153e-09
1.75149e-05
1.93988e-10
1.7515e-05
1.28961e-08
1.75163e-05
2.5778e-08
1.75156e-05
2.85174e-08
1.7515e-05
3.00025e-08
1.75161e-05
3.55626e-08
1.75179e-05
4.05012e-08
1.75191e-05
4.15497e-08
1.75202e-05
4.08667e-08
1.75218e-05
4.06868e-08
1.75239e-05
4.08501e-08
1.7526e-05
4.0148e-08
3.83226e-08
1.75278e-05
1.83639e-05
-2.44174e-08
1.8361e-05
-3.6474e-08
1.83628e-05
-1.8797e-08
1.83597e-05
-2.25384e-08
1.83567e-05
-2.21994e-08
1.83577e-05
-4.92824e-09
1.83566e-05
2.14302e-09
1.83536e-05
3.13342e-09
1.83533e-05
1.31758e-08
1.83545e-05
2.46132e-08
1.83544e-05
2.86337e-08
1.8354e-05
3.04023e-08
1.83549e-05
3.4618e-08
1.83567e-05
3.87569e-08
1.83582e-05
4.00752e-08
1.83594e-05
3.96204e-08
1.8361e-05
3.91368e-08
1.83629e-05
3.88639e-08
1.8365e-05
3.80822e-08
3.6465e-08
1.83669e-05
1.92426e-05