/*--------------------------------*- C++ -*----------------------------------*\
| =========                 |                                                 |
| \\      /  F ield         | OpenFOAM: The Open Source CFD Toolbox           |
|  \\    /   O peration     | Version:  2106                                  |
|   \\  /    A nd           | Website:  www.openfoam.com                      |
|    \\/     M anipulation  |                                                 |
\*---------------------------------------------------------------------------*/
FoamFile
{
    version     2.0;
    format      ascii;
    arch        "LSB;label=32;scalar=64";
    class       volVectorField;
    location    "0.095";
    object      U;
}
// * * * * * * * * * * * * * * * * * * * * * * * * * * * * * * * * * * * * * //

dimensions      [0 1 -1 0 0 0 0];

internalField   nonuniform List<vector> 
9600
(
(0.961201 -0.0102242 0)
(1.08181 0.0181398 0)
(0.897303 -0.0135877 0)
(1.13301 -0.00170996 0)
(0.882324 0.00971994 0)
(1.10934 -0.00317982 0)
(0.900006 -0.00971573 0)
(1.11547 -0.00260732 0)
(0.8938 0.00875624 0)
(1.10324 0.00254745 0)
(0.890149 -0.00344512 0)
(1.10573 -0.0099921 0)
(0.89412 -0.00330051 0)
(1.10581 -0.00232009 0)
(0.869069 0.00774573 0)
(1.11674 0.00935715 0)
(0.879757 -0.00122088 0)
(1.08453 -0.00351796 0)
(0.871409 -0.00180272 0)
(1.10673 -0.0100631 0)
(0.964063 -0.0105261 0)
(1.0773 0.0184449 0)
(0.915423 -0.0141145 0)
(1.12465 -0.00147248 0)
(0.899195 0.0097849 0)
(1.09373 -0.00314733 0)
(0.917752 -0.0100305 0)
(1.09964 -0.00231295 0)
(0.914018 0.00874256 0)
(1.0804 0.0028152 0)
(0.920649 -0.00372673 0)
(1.076 -0.00981841 0)
(0.9259 -0.00357248 0)
(1.06974 -0.0014924 0)
(0.914895 0.00732747 0)
(1.0588 0.0091382 0)
(0.9569 -9.07732e-06 0)
(1.0075 -0.0037923 0)
(0.97123 -0.0015297 0)
(0.994059 -0.0113345 0)
(0.968872 -0.0108038 0)
(1.0681 0.0188203 0)
(0.93783 -0.0144759 0)
(1.10535 -0.00124351 0)
(0.929802 0.00993113 0)
(1.07156 -0.003141 0)
(0.944508 -0.0102224 0)
(1.07168 -0.002158 0)
(0.946735 0.00884846 0)
(1.05136 0.0028376 0)
(0.958374 -0.00379007 0)
(1.04073 -0.00979532 0)
(0.963892 -0.00348933 0)
(1.03085 -0.0013476 0)
(0.959905 0.00743149 0)
(1.01726 0.00831841 0)
(0.995136 0.000979409 0)
(0.987421 -0.00404643 0)
(0.988894 -0.00163854 0)
(0.989032 -0.00903992 0)
(0.974791 -0.0110228 0)
(1.0552 0.0190268 0)
(0.960153 -0.0147081 0)
(1.07831 -0.00114636 0)
(0.962834 0.0101254 0)
(1.04948 -0.00312034 0)
(0.969604 -0.0102641 0)
(1.04188 -0.00214523 0)
(0.976991 0.0090096 0)
(1.02982 0.00275831 0)
(0.985634 -0.00366438 0)
(1.01638 -0.00981656 0)
(0.98678 -0.00332247 0)
(1.00959 -0.00128256 0)
(0.98348 0.00765854 0)
(1.00465 0.00763617 0)
(1.00467 0.00150064 0)
(0.992841 -0.00377762 0)
(0.989615 -0.00143468 0)
(0.991188 -0.00805431 0)
(0.980824 -0.0111852 0)
(1.0406 0.0190555 0)
(0.978919 -0.0147899 0)
(1.0499 -0.00119392 0)
(0.988258 0.0102868 0)
(1.03242 -0.00304854 0)
(0.986397 -0.0101955 0)
(1.01869 -0.00223864 0)
(0.996316 0.00908079 0)
(1.0188 0.00270817 0)
(0.99935 -0.00347121 0)
(1.00444 -0.00976058 0)
(0.994938 -0.00321263 0)
(1.00146 -0.00124343 0)
(0.993119 0.00768668 0)
(1.00335 0.00720272 0)
(1.00662 0.00179902 0)
(0.997719 -0.00342202 0)
(0.992111 -0.00114445 0)
(0.989643 -0.00729778 0)
(0.98609 -0.0112866 0)
(1.02664 0.0189695 0)
(0.992439 -0.014744 0)
(1.02581 -0.00132798 0)
(1.0021 0.0103586 0)
(1.0218 -0.00291969 0)
(0.994683 -0.0100502 0)
(1.00422 -0.00237396 0)
(1.00463 0.00901185 0)
(1.0141 0.00270493 0)
(1.00438 -0.00324323 0)
(0.999583 -0.0096199 0)
(0.996075 -0.00315049 0)
(0.997917 -0.00126626 0)
(0.996472 0.00756128 0)
(1.00365 0.00692543 0)
(1.00654 0.00196254 0)
(0.9994 -0.00306175 0)
(0.994389 -0.000786296 0)
(0.988795 -0.00631055 0)
(0.990088 -0.0113255 0)
(1.01513 0.0188117 0)
(1.00088 -0.0146092 0)
(1.00877 -0.00146954 0)
(1.00612 0.010323 0)
(1.01616 -0.00276399 0)
(0.997639 -0.00985024 0)
(0.996322 -0.00251077 0)
(1.00576 0.00883515 0)
(1.01145 0.00271216 0)
(1.00541 -0.00300017 0)
(0.997758 -0.00942704 0)
(0.99519 -0.00308693 0)
(0.995442 -0.00134236 0)
(0.996636 0.00736477 0)
(1.00315 0.00670466 0)
(1.00542 0.00208346 0)
(0.999301 -0.00267899 0)
(0.995406 -0.000429165 0)
(0.989057 -0.00518224 0)
(0.992755 -0.0113092 0)
(1.00687 0.0186055 0)
(1.00549 -0.0144191 0)
(0.998492 -0.00157425 0)
(1.00467 0.0101937 0)
(1.01338 -0.00262052 0)
(0.998322 -0.00961267 0)
(0.992218 -0.00262253 0)
(1.00362 0.00860178 0)
(1.00917 0.00269746 0)
(1.00497 -0.00277102 0)
(0.997178 -0.00920347 0)
(0.994172 -0.00300016 0)
(0.993486 -0.00141899 0)
(0.995212 0.00712156 0)
(1.0018 0.00650515 0)
(1.00392 0.00218603 0)
(0.998444 -0.00228447 0)
(0.995503 -0.000157512 0)
(0.98971 -0.00402852 0)
(0.994336 -0.0112504 0)
(1.00168 0.0183677 0)
(1.00768 -0.0141964 0)
(0.993149 -0.00163293 0)
(1.00163 0.0100013 0)
(1.01193 -0.00251207 0)
(0.998372 -0.00934935 0)
(0.990157 -0.00269501 0)
(1.00085 0.00834724 0)
(1.00718 0.00264537 0)
(1.00415 -0.00257289 0)
(0.997104 -0.00895939 0)
(0.993505 -0.0028862 0)
(0.99214 -0.00145925 0)
(0.993438 0.00684748 0)
(1.00016 0.00631929 0)
(1.00253 0.00223268 0)
(0.9975 -0.0018828 0)
(0.99517 2.20422e-05 0)
(0.990339 -0.00289691 0)
(0.995187 -0.0111617 0)
(0.998802 0.0181086 0)
(1.00855 -0.0139525 0)
(0.990761 -0.00165583 0)
(0.999068 0.00977522 0)
(1.01109 -0.00244037 0)
(0.998343 -0.00906827 0)
(0.989235 -0.00272905 0)
(0.998705 0.00808703 0)
(1.0057 0.00255756 0)
(1.00341 -0.00240451 0)
(0.997184 -0.00870155 0)
(0.993202 -0.00275487 0)
(0.991415 -0.00145015 0)
(0.992067 0.00655184 0)
(0.998757 0.00614574 0)
(1.0015 0.00221832 0)
(0.996807 -0.00145972 0)
(0.994765 0.00015521 0)
(0.990819 -0.00183646 0)
(0.995624 -0.0110525 0)
(0.997386 0.0178322 0)
(1.00879 -0.013691 0)
(0.989898 -0.00165952 0)
(0.997524 0.00953532 0)
(1.01054 -0.00239631 0)
(0.998334 -0.00877511 0)
(0.988955 -0.00273466 0)
(0.997462 0.0078251 0)
(1.00477 0.00244625 0)
(1.00286 -0.00225785 0)
(0.997266 -0.00843211 0)
(0.993148 -0.00261915 0)
(0.991165 -0.00139666 0)
(0.991318 0.00623678 0)
(0.997809 0.00599165 0)
(1.00082 0.0021555 0)
(0.996414 -0.00100882 0)
(0.994471 0.00025862 0)
(0.991177 -0.000891842 0)
(0.995861 -0.0109292 0)
(0.996748 0.0175392 0)
(1.00876 -0.0134122 0)
(0.989733 -0.00165822 0)
(0.996771 0.00929194 0)
(1.01015 -0.00236997 0)
(0.998337 -0.00847338 0)
(0.989005 -0.00272299 0)
(0.996907 0.0075614 0)
(1.00422 0.00232257 0)
(1.00247 -0.00212574 0)
(0.997313 -0.0081493 0)
(0.993231 -0.0024903 0)
(0.991202 -0.00130721 0)
(0.991069 0.00590327 0)
(0.997253 0.00585906 0)
(1.00037 0.00205859 0)
(0.996227 -0.000550215 0)
(0.994324 0.000375471 0)
(0.991485 -7.29755e-05 0)
(0.996014 -0.010795 0)
(0.996467 0.0172292 0)
(1.00862 -0.0131158 0)
(0.989861 -0.0016609 0)
(0.99645 0.00905025 0)
(1.00984 -0.00235504 0)
(0.998342 -0.0081646 0)
(0.989205 -0.00270237 0)
(0.996735 0.00729496 0)
(1.00388 0.00219396 0)
(1.00217 -0.0020047 0)
(0.997335 -0.0078501 0)
(0.993376 -0.00237806 0)
(0.991376 -0.00118183 0)
(0.991109 0.0055469 0)
(0.996939 0.00575076 0)
(1.00005 0.00194487 0)
(0.996141 -0.000104259 0)
(0.994287 0.000542014 0)
(0.991798 0.000604282 0)
(0.996137 -0.0106515 0)
(0.996329 0.0169017 0)
(1.00844 -0.0128016 0)
(0.990105 -0.00167207 0)
(0.996314 0.00881303 0)
(1.00956 -0.00234865 0)
(0.998347 -0.00784963 0)
(0.989466 -0.00267688 0)
(0.996731 0.00702481 0)
(1.00364 0.00206604 0)
(1.0019 -0.00189395 0)
(0.997344 -0.00753226 0)
(0.993549 -0.00228649 0)
(0.991602 -0.00102665 0)
(0.991278 0.00517273 0)
(0.996744 0.00566195 0)
(0.999796 0.00183206 0)
(0.996095 0.00031073 0)
(0.994307 0.000760701 0)
(0.992134 0.00113182 0)
(0.996253 -0.0104991 0)
(0.996242 0.0165564 0)
(1.00824 -0.0124692 0)
(0.990395 -0.00169372 0)
(0.996243 0.00858166 0)
(1.00929 -0.00234943 0)
(0.998352 -0.00752994 0)
(0.98975 -0.002647 0)
(0.996787 0.00674981 0)
(1.00343 0.00194269 0)
(1.00166 -0.00179223 0)
(0.997348 -0.00719513 0)
(0.993732 -0.00221751 0)
(0.991842 -0.00084795 0)
(0.991496 0.00478827 0)
(0.996598 0.00558086 0)
(0.999568 0.00173446 0)
(0.996065 0.00068418 0)
(0.994349 0.00103904 0)
(0.992488 0.00155168 0)
(0.996368 -0.0103379 0)
(0.996173 0.0161929 0)
(1.00802 -0.0121185 0)
(0.990706 -0.00172684 0)
(0.996193 0.00835732 0)
(1.00902 -0.00235771 0)
(0.998359 -0.00720522 0)
(0.990041 -0.00261404 0)
(0.996862 0.00647048 0)
(1.00322 0.0018248 0)
(1.00142 -0.00170177 0)
(0.997349 -0.00683675 0)
(0.993923 -0.0021717 0)
(0.992082 -0.000650712 0)
(0.991727 0.00440037 0)
(0.996473 0.00550453 0)
(0.999357 0.00167217 0)
(0.99605 0.00100318 0)
(0.994399 0.00137243 0)
(0.992846 0.00189121 0)
(0.996484 -0.0101675 0)
(0.996111 0.0158108 0)
(1.0078 -0.0117495 0)
(0.991028 -0.00177198 0)
(0.996149 0.00814088 0)
(1.00875 -0.00237374 0)
(0.998369 -0.00687566 0)
(0.990336 -0.00257776 0)
(0.996943 0.00618611 0)
(1.00302 0.00171514 0)
(1.00119 -0.0016261 0)
(0.997348 -0.00645618 0)
(0.994119 -0.00214715 0)
(0.992318 -0.000439819 0)
(0.991964 0.0040194 0)
(0.99636 0.00542416 0)
(0.999157 0.00167044 0)
(0.996053 0.00125832 0)
(0.994452 0.00174168 0)
(0.993197 0.00218523 0)
(0.996602 -0.0099879 0)
(0.996054 0.0154101 0)
(1.00756 -0.0113622 0)
(0.991357 -0.00182945 0)
(0.99611 0.00793278 0)
(1.00847 -0.00239662 0)
(0.998381 -0.00654427 0)
(0.990632 -0.00253318 0)
(0.997027 0.00589405 0)
(1.00282 0.00161778 0)
(1.00096 -0.00156677 0)
(0.997344 -0.0060539 0)
(0.994322 -0.00214147 0)
(0.99255 -0.000220847 0)
(0.992202 0.00365921 0)
(0.996261 0.0053105 0)
(0.998966 0.00173027 0)
(0.996072 0.00144703 0)
(0.994511 0.00211301 0)
(0.993531 0.00246586 0)
(0.996722 -0.00979881 0)
(0.996 0.0149905 0)
(1.00733 -0.0109568 0)
(0.991693 -0.00189921 0)
(0.996073 0.00773309 0)
(1.00819 -0.00242582 0)
(0.998396 -0.0062118 0)
(0.990928 -0.00248378 0)
(0.997113 0.0055939 0)
(1.00262 0.00153305 0)
(1.00073 -0.00152349 0)
(0.997338 -0.00563555 0)
(0.994529 -0.00214386 0)
(0.992777 -6.63521e-06 0)
(0.992437 0.00333544 0)
(0.996176 0.00515 0)
(0.998781 0.00184209 0)
(0.996108 0.00158821 0)
(0.994579 0.00245155 0)
(0.993847 0.0027435 0)
(0.996845 -0.00960006 0)
(0.99595 0.0145521 0)
(1.00708 -0.0105335 0)
(0.992033 -0.00198146 0)
(0.996041 0.00754274 0)
(1.00791 -0.00246193 0)
(0.998412 -0.00587896 0)
(0.991223 -0.00242828 0)
(0.997202 0.0052843 0)
(1.00241 0.00146299 0)
(1.00051 -0.00149626 0)
(0.997328 -0.00520846 0)
(0.994739 -0.00214304 0)
(0.993002 0.000192386 0)
(0.992667 0.00306173 0)
(0.996109 0.00495495 0)
(0.998605 0.00199171 0)
(0.996157 0.00171485 0)
(0.994661 0.00273936 0)
(0.994143 0.00300939 0)
(0.996969 -0.00939148 0)
(0.995904 0.0140949 0)
(1.00683 -0.0100928 0)
(0.992378 -0.00207601 0)
(0.996011 0.00736111 0)
(1.00762 -0.00250203 0)
(0.99843 -0.00555141 0)
(0.991518 -0.00235842 0)
(0.997294 0.00496364 0)
(1.00221 0.00141146 0)
(1.0003 -0.00148681 0)
(0.997316 -0.00477162 0)
(0.994953 -0.00214453 0)
(0.993225 0.000365281 0)
(0.99289 0.00285029 0)
(0.996059 0.00472703 0)
(0.99844 0.00216091 0)
(0.996214 0.00184568 0)
(0.994755 0.00296641 0)
(0.994419 0.0032525 0)
(0.997095 -0.00917299 0)
(0.995862 0.0136194 0)
(1.00657 -0.00963556 0)
(0.992726 -0.00218179 0)
(0.995984 0.00718681 0)
(1.00733 -0.0025437 0)
(0.99845 -0.00523168 0)
(0.991809 -0.00227523 0)
(0.997388 0.0046318 0)
(1.002 0.00137636 0)
(1.0001 -0.00148922 0)
(0.997303 -0.00433495 0)
(0.995166 -0.00213692 0)
(0.99345 0.000499037 0)
(0.993104 0.00270358 0)
(0.996027 0.00447887 0)
(0.998288 0.0023329 0)
(0.996275 0.00199852 0)
(0.99486 0.00314579 0)
(0.994677 0.00347465 0)
(0.997222 -0.00894449 0)
(0.995826 0.0131256 0)
(1.00631 -0.00916229 0)
(0.993078 -0.00229904 0)
(0.995959 0.00702145 0)
(1.00704 -0.00258886 0)
(0.998472 -0.00491784 0)
(0.992096 -0.00217885 0)
(0.997486 0.00428535 0)
(1.0018 0.00136001 0)
(0.999898 -0.00149858 0)
(0.997288 -0.00391154 0)
(0.995377 -0.00209451 0)
(0.993679 0.000587336 0)
(0.993308 0.00260745 0)
(0.996011 0.00423296 0)
(0.998154 0.00247839 0)
(0.996338 0.00217937 0)
(0.994973 0.00329918 0)
(0.99492 0.00367174 0)
(0.997351 -0.00870598 0)
(0.995796 0.0126142 0)
(1.00604 -0.00867422 0)
(0.993434 -0.00242627 0)
(0.995937 0.00686207 0)
(1.00675 -0.00263112 0)
(0.998496 -0.00461769 0)
(0.992377 -0.00206611 0)
(0.997588 0.00392833 0)
(1.0016 0.00135794 0)
(0.999707 -0.00151088 0)
(0.997276 -0.0035043 0)
(0.995583 -0.00202214 0)
(0.993912 0.000630179 0)
(0.993505 0.00254833 0)
(0.996007 0.00399877 0)
(0.99804 0.00258182 0)
(0.996405 0.00236594 0)
(0.99509 0.00343745 0)
(0.995147 0.00383094 0)
(0.997481 -0.00845756 0)
(0.995773 0.012086 0)
(1.00577 -0.00817309 0)
(0.993792 -0.00256154 0)
(0.995917 0.00670694 0)
(1.00646 -0.00266821 0)
(0.998525 -0.00433458 0)
(0.99265 -0.00193422 0)
(0.997693 0.00356099 0)
(1.0014 0.00136419 0)
(0.999523 -0.00151546 0)
(0.997265 -0.00312852 0)
(0.995781 -0.00191863 0)
(0.99415 0.000636425 0)
(0.993696 0.0025172 0)
(0.996011 0.00379071 0)
(0.997949 0.00265386 0)
(0.996477 0.00253831 0)
(0.995209 0.0035761 0)
(0.995356 0.00396084 0)
(0.997612 -0.00819927 0)
(0.995758 0.0115416 0)
(1.00549 -0.00765958 0)
(0.994154 -0.00270497 0)
(0.995899 0.00655682 0)
(1.00617 -0.00269907 0)
(0.998559 -0.00407336 0)
(0.992913 -0.00177728 0)
(0.997802 0.00318255 0)
(1.0012 0.00137463 0)
(0.999345 -0.00150958 0)
(0.997259 -0.00278997 0)
(0.99597 -0.00176786 0)
(0.994391 0.000622255 0)
(0.993883 0.00249181 0)
(0.996022 0.00362738 0)
(0.997877 0.00270076 0)
(0.996559 0.00267956 0)
(0.995329 0.003706 0)
(0.995546 0.00407897 0)
(0.997743 -0.00793141 0)
(0.995751 0.0109825 0)
(1.00521 -0.00713644 0)
(0.994516 -0.0028529 0)
(0.995884 0.00640712 0)
(1.00588 -0.00271761 0)
(0.9986 -0.00383716 0)
(0.993165 -0.00160334 0)
(0.997912 0.00280013 0)
(1.00101 0.00138558 0)
(0.999171 -0.00148164 0)
(0.99726 -0.00249384 0)
(0.99615 -0.00158016 0)
(0.994634 0.000597586 0)
(0.994071 0.00245364 0)
(0.996038 0.00350791 0)
(0.997821 0.00272883 0)
(0.996651 0.00278598 0)
(0.995455 0.00381025 0)
(0.995718 0.00419102 0)
(0.997874 -0.00765425 0)
(0.995754 0.0104098 0)
(1.00492 -0.00660557 0)
(0.99488 -0.0030039 0)
(0.995873 0.00625597 0)
(1.00558 -0.00272148 0)
(0.998649 -0.00362614 0)
(0.993405 -0.00140988 0)
(0.998023 0.00241755 0)
(1.00083 0.00139151 0)
(0.999 -0.00142036 0)
(0.997267 -0.00224522 0)
(0.996321 -0.00137571 0)
(0.994873 0.000575643 0)
(0.994261 0.00239966 0)
(0.996059 0.00341503 0)
(0.997778 0.00275442 0)
(0.996753 0.00286226 0)
(0.995587 0.00388729 0)
(0.995875 0.00428745 0)
(0.998005 -0.00736818 0)
(0.995767 0.00982494 0)
(1.00463 -0.00606901 0)
(0.995243 -0.00315639 0)
(0.995867 0.00610197 0)
(1.00528 -0.00270734 0)
(0.998708 -0.00344522 0)
(0.993632 -0.00119382 0)
(0.998132 0.00204231 0)
(1.00067 0.00137857 0)
(0.998831 -0.00132062 0)
(0.997282 -0.00204279 0)
(0.996486 -0.00115629 0)
(0.995108 0.000572591 0)
(0.994456 0.00232615 0)
(0.996088 0.00333853 0)
(0.997743 0.00278828 0)
(0.996862 0.0029046 0)
(0.995728 0.00393235 0)
(0.996021 0.00435497 0)
(0.998135 -0.00707374 0)
(0.995791 0.00922999 0)
(1.00433 -0.00553018 0)
(0.995605 -0.00330559 0)
(0.995867 0.00593961 0)
(1.00498 -0.00266951 0)
(0.998777 -0.00329826 0)
(0.993846 -0.000963382 0)
(0.998237 0.00168352 0)
(1.00052 0.00134243 0)
(0.998663 -0.00118261 0)
(0.997302 -0.00187658 0)
(0.996647 -0.0009378 0)
(0.995333 0.000603514 0)
(0.994655 0.00223289 0)
(0.996128 0.00326391 0)
(0.997715 0.00284428 0)
(0.996975 0.00293552 0)
(0.995878 0.00395022 0)
(0.996161 0.00440159 0)
(0.998263 -0.00677161 0)
(0.995826 0.00862713 0)
(1.00403 -0.00499216 0)
(0.995964 -0.00344878 0)
(0.995874 0.00576637 0)
(1.00468 -0.00260682 0)
(0.998856 -0.0031857 0)
(0.99405 -0.00072286 0)
(0.998335 0.00135047 0)
(1.00039 0.00127373 0)
(0.998498 -0.0010085 0)
(0.997325 -0.00173089 0)
(0.996809 -0.000740454 0)
(0.995546 0.000670514 0)
(0.994853 0.00213658 0)
(0.996184 0.00317629 0)
(0.997694 0.00291909 0)
(0.997086 0.00297418 0)
(0.996036 0.00393621 0)
(0.996297 0.00442774 0)
(0.998391 -0.00646247 0)
(0.995875 0.00801841 0)
(1.00373 -0.00445765 0)
(0.996319 -0.00358337 0)
(0.995889 0.0055794 0)
(1.00437 -0.00251528 0)
(0.998946 -0.00310537 0)
(0.994243 -0.000477892 0)
(0.998423 0.00104788 0)
(1.00027 0.0011698 0)
(0.998337 -0.000800358 0)
(0.997349 -0.00159611 0)
(0.996973 -0.000576698 0)
(0.99575 0.000765714 0)
(0.995047 0.00205625 0)
(0.996258 0.00306682 0)
(0.997684 0.00298632 0)
(0.997191 0.0030258 0)
(0.996198 0.00388838 0)
(0.996432 0.0044256 0)
(0.998515 -0.00614734 0)
(0.995936 0.00740695 0)
(1.00342 -0.00393179 0)
(0.996667 -0.00370263 0)
(0.995914 0.00537572 0)
(1.00405 -0.00239153 0)
(0.999046 -0.00305549 0)
(0.994428 -0.000233834 0)
(0.998497 0.000785756 0)
(1.00018 0.00103096 0)
(0.998182 -0.000572189 0)
(0.997367 -0.00145986 0)
(0.997144 -0.000455855 0)
(0.995945 0.000884269 0)
(0.995231 0.00200312 0)
(0.996347 0.00293193 0)
(0.997691 0.00302457 0)
(0.997287 0.00309652 0)
(0.996359 0.00382616 0)
(0.996568 0.00438992 0)
(0.998638 -0.00582723 0)
(0.99601 0.00679559 0)
(1.00312 -0.00341784 0)
(0.997007 -0.00380545 0)
(0.995951 0.00514947 0)
(1.00373 -0.00223557 0)
(0.999157 -0.00303212 0)
(0.994607 -1.67212e-07 0)
(0.998554 0.000575171 0)
(1.00012 0.000857296 0)
(0.998038 -0.00033751 0)
(0.997376 -0.00130515 0)
(0.997321 -0.000377679 0)
(0.996139 0.00100369 0)
(0.9954 0.00198715 0)
(0.996446 0.00278543 0)
(0.99772 0.00302255 0)
(0.997377 0.00318185 0)
(0.996512 0.00377978 0)
(0.996704 0.00432654 0)
(0.998756 -0.00550332 0)
(0.996099 0.00618735 0)
(1.00281 -0.00291916 0)
(0.997336 -0.00388997 0)
(0.996 0.00489958 0)
(1.0034 -0.00204917 0)
(0.999275 -0.00302833 0)
(0.994783 0.000216376 0)
(0.998592 0.000416499 0)
(1.00007 0.000653828 0)
(0.997909 -0.000109339 0)
(0.997372 -0.00111825 0)
(0.997502 -0.000334846 0)
(0.996336 0.00110677 0)
(0.995552 0.00201523 0)
(0.996548 0.00265094 0)
(0.997777 0.00297601 0)
(0.997469 0.00326115 0)
(0.99665 0.00376392 0)
(0.996835 0.00424089 0)
(0.998871 -0.00517701 0)
(0.996201 0.00558622 0)
(1.00251 -0.0024422 0)
(0.997653 -0.00394627 0)
(0.996063 0.00462372 0)
(1.00306 -0.00183292 0)
(0.9994 -0.00303858 0)
(0.99496 0.000400957 0)
(0.998607 0.000315606 0)
(1.00005 0.000428414 0)
(0.997802 9.45035e-05 0)
(0.997353 -0.000895902 0)
(0.997683 -0.000316033 0)
(0.996545 0.00117883 0)
(0.995689 0.00207996 0)
(0.996643 0.00254397 0)
(0.997858 0.0028843 0)
(0.997572 0.00330799 0)
(0.996773 0.00378081 0)
(0.996955 0.00415014 0)
(0.998982 -0.00484976 0)
(0.996317 0.00499571 0)
(1.00221 -0.00199039 0)
(0.997955 -0.0039727 0)
(0.996143 0.00432055 0)
(1.00273 -0.00158996 0)
(0.999528 -0.00305791 0)
(0.99514 0.000546855 0)
(0.998598 0.000275532 0)
(1.00005 0.000196795 0)
(0.997722 0.000264612 0)
(0.997318 -0.000638245 0)
(0.997856 -0.000305703 0)
(0.996769 0.00120516 0)
(0.995817 0.00216368 0)
(0.996721 0.002479 0)
(0.997957 0.00275964 0)
(0.997698 0.00330478 0)
(0.996884 0.00382143 0)
(0.997054 0.0040824 0)
(0.999088 -0.0045232 0)
(0.996446 0.00441976 0)
(1.00192 -0.00156804 0)
(0.998239 -0.00396701 0)
(0.99624 0.0039913 0)
(1.00238 -0.00132992 0)
(0.999657 -0.00307108 0)
(0.995329 0.000651218 0)
(0.998567 0.000291786 0)
(1.00005 -3.69148e-05 0)
(0.997675 0.000394989 0)
(0.997268 -0.000353259 0)
(0.998013 -0.000285492 0)
(0.997012 0.00118366 0)
(0.995947 0.00224882 0)
(0.996777 0.00246484 0)
(0.998064 0.00262518 0)
(0.997855 0.00324023 0)
(0.996997 0.00385777 0)
(0.997126 0.00405288 0)
(0.999189 -0.00419902 0)
(0.996589 0.00386237 0)
(1.00163 -0.00117956 0)
(0.998504 -0.00392592 0)
(0.996354 0.00363651 0)
(1.00204 -0.00105639 0)
(0.999781 -0.00307293 0)
(0.995529 0.000703833 0)
(0.998511 0.000359498 0)
(1.00007 -0.000257852 0)
(0.997668 0.000475625 0)
(0.997208 -6.11259e-05 0)
(0.998146 -0.000244395 0)
(0.997272 0.00111491 0)
(0.996088 0.00231376 0)
(0.996809 0.00249864 0)
(0.998162 0.00250832 0)
(0.998042 0.00311841 0)
(0.997127 0.003861 0)
(0.997172 0.00406749 0)
(0.999284 -0.00387912 0)
(0.996743 0.00332783 0)
(1.00136 -0.000829228 0)
(0.998747 -0.00384733 0)
(0.996487 0.00326155 0)
(1.0017 -0.000777866 0)
(0.999897 -0.00305702 0)
(0.995743 0.000702465 0)
(0.998436 0.000462838 0)
(1.00008 -0.000435769 0)
(0.9977 0.000494571 0)
(0.997143 0.000238821 0)
(0.998249 -0.000162576 0)
(0.997545 0.00101287 0)
(0.996252 0.00234081 0)
(0.996822 0.00256915 0)
(0.998237 0.00243074 0)
(0.998251 0.00295567 0)
(0.997292 0.00380605 0)
(0.997199 0.00411123 0)
(0.999373 -0.00356523 0)
(0.996909 0.00281966 0)
(1.00109 -0.000519537 0)
(0.998965 -0.00373155 0)
(0.996638 0.00287108 0)
(1.00136 -0.000505617 0)
(0.999999 -0.00300914 0)
(0.995974 0.000651855 0)
(0.998347 0.000590676 0)
(1.00008 -0.000565359 0)
(0.997774 0.000452761 0)
(0.997085 0.000532272 0)
(0.998312 -3.46726e-05 0)
(0.99782 0.000897707 0)
(0.996448 0.00231852 0)
(0.996827 0.00265633 0)
(0.998277 0.00240384 0)
(0.998466 0.00277973 0)
(0.997505 0.00368078 0)
(0.997229 0.00414886 0)
(0.999455 -0.00325933 0)
(0.997084 0.00234194 0)
(1.00084 -0.000253539 0)
(0.999159 -0.00357924 0)
(0.996806 0.00247134 0)
(1.00103 -0.000249031 0)
(1.00008 -0.00292521 0)
(0.996222 0.000556135 0)
(0.998249 0.000730808 0)
(1.00007 -0.000637876 0)
(0.997887 0.000369917 0)
(0.997043 0.00078271 0)
(0.998335 0.000135525 0)
(0.998086 0.000789625 0)
(0.996679 0.00224362 0)
(0.996838 0.00273609 0)
(0.998279 0.0024262 0)
(0.998666 0.00262198 0)
(0.997764 0.00349272 0)
(0.99729 0.00413792 0)
(0.999531 -0.00296325 0)
(0.997267 0.00189794 0)
(1.00061 -3.19569e-05 0)
(0.999325 -0.00339304 0)
(0.996989 0.00206922 0)
(1.00072 -1.96852e-05 0)
(1.00015 -0.00280451 0)
(0.996485 0.000424534 0)
(0.998151 0.000866826 0)
(1.00004 -0.000646179 0)
(0.998032 0.000261088 0)
(0.997028 0.000981165 0)
(0.998321 0.00034591 0)
(0.998331 0.000708541 0)
(0.996945 0.0021206 0)
(0.996869 0.00278748 0)
(0.998246 0.00248787 0)
(0.998832 0.00250619 0)
(0.998055 0.00326897 0)
(0.997409 0.00404832 0)
(0.9996 -0.0026787 0)
(0.997455 0.00149033 0)
(1.00039 0.000144665 0)
(0.999465 -0.00317854 0)
(0.997184 0.00167478 0)
(1.00042 0.000181258 0)
(1.00019 -0.00264397 0)
(0.996762 0.000268961 0)
(0.998061 0.000982727 0)
(0.999979 -0.000594041 0)
(0.9982 0.00014082 0)
(0.997048 0.00111685 0)
(0.998278 0.00057722 0)
(0.99854 0.000667464 0)
(0.997237 0.00196269 0)
(0.996934 0.00279524 0)
(0.99819 0.00257119 0)
(0.99895 0.00244126 0)
(0.998354 0.00304564 0)
(0.997601 0.00387302 0)
(0.999662 -0.00240739 0)
(0.997647 0.00112165 0)
(1.00019 0.000276742 0)
(0.999577 -0.00293999 0)
(0.99739 0.00129683 0)
(1.00015 0.000348682 0)
(1.0002 -0.00244418 0)
(0.997047 0.00010141 0)
(0.997987 0.00106624 0)
(0.999895 -0.000490281 0)
(0.99838 2.91945e-05 0)
(0.997108 0.00118684 0)
(0.998215 0.000810661 0)
(0.998704 0.000674767 0)
(0.997546 0.00178993 0)
(0.997044 0.00275074 0)
(0.998125 0.00265379 0)
(0.999016 0.00242241 0)
(0.998632 0.00285595 0)
(0.997861 0.00363465 0)
(0.999718 -0.00215079 0)
(0.997841 0.000793394 0)
(1.00002 0.000366059 0)
(0.999663 -0.00268442 0)
(0.997601 0.000943421 0)
(0.9999 0.000473687 0)
(1.00019 -0.00221336 0)
(0.997335 -6.18883e-05 0)
(0.997935 0.001111 0)
(0.999789 -0.000346489 0)
(0.998561 -6.57815e-05 0)
(0.997212 0.001195 0)
(0.998146 0.00102823 0)
(0.998819 0.000731822 0)
(0.997855 0.00162435 0)
(0.997201 0.00265512 0)
(0.998069 0.00271728 0)
(0.999036 0.00243728 0)
(0.998868 0.00271534 0)
(0.998163 0.00337382 0)
(0.999767 -0.00190999 0)
(0.998034 0.000505981 0)
(0.999864 0.00041569 0)
(0.999725 -0.00241897 0)
(0.997815 0.000621875 0)
(0.999684 0.000555646 0)
(1.00015 -0.00195979 0)
(0.997619 -0.000213724 0)
(0.997912 0.00111244 0)
(0.999664 -0.000176374 0)
(0.99873 -0.000132322 0)
(0.997357 0.00114969 0)
(0.998086 0.00121089 0)
(0.998885 0.000831206 0)
(0.998149 0.00148458 0)
(0.997402 0.00251784 0)
(0.998037 0.00274864 0)
(0.999021 0.00247044 0)
(0.999049 0.00262119 0)
(0.998472 0.00313344 0)
(0.999809 -0.00168617 0)
(0.998223 0.000259674 0)
(0.999734 0.000430448 0)
(0.999764 -0.00215068 0)
(0.998026 0.000338368 0)
(0.999501 0.000595375 0)
(1.00009 -0.00169359 0)
(0.997892 -0.000346964 0)
(0.99792 0.00107253 0)
(0.999528 -2.5229e-06 0)
(0.998879 -0.000154338 0)
(0.997537 0.00106982 0)
(0.998048 0.00134698 0)
(0.998908 0.000959042 0)
(0.998411 0.00138354 0)
(0.997639 0.00235301 0)
(0.99804 0.00273843 0)
(0.998986 0.00250702 0)
(0.999177 0.00256062 0)
(0.998756 0.00294103 0)
(0.999846 -0.00147986 0)
(0.998407 5.21881e-05 0)
(0.999628 0.000415313 0)
(0.999783 -0.0018867 0)
(0.998231 9.70093e-05 0)
(0.999352 0.00059569 0)
(1.00002 -0.00142564 0)
(0.998147 -0.000447665 0)
(0.997959 0.000999137 0)
(0.99939 0.000169302 0)
(0.999002 -0.000131611 0)
(0.997743 0.000973507 0)
(0.998041 0.00143041 0)
(0.9989 0.00109589 0)
(0.998632 0.00132657 0)
(0.997898 0.00217911 0)
(0.998087 0.00268249 0)
(0.998944 0.00253575 0)
(0.999262 0.00251867 0)
(0.998992 0.00279886 0)
(0.999876 -0.00129135 0)
(0.998583 -0.000116888 0)
(0.999546 0.000376144 0)
(0.999787 -0.00163462 0)
(0.998425 -0.000100076 0)
(0.999239 0.00056205 0)
(0.999927 -0.00116614 0)
(0.99838 -0.000509404 0)
(0.99803 0.00089955 0)
(0.99926 0.000328528 0)
(0.999094 -7.04655e-05 0)
(0.997961 0.000875415 0)
(0.998069 0.00146184 0)
(0.998874 0.00122398 0)
(0.998805 0.00131132 0)
(0.998162 0.00201587 0)
(0.998178 0.0025849 0)
(0.998908 0.00254788 0)
(0.999313 0.00248595 0)
(0.999178 0.0026945 0)
(0.999902 -0.00112076 0)
(0.99875 -0.000248913 0)
(0.999485 0.000319039 0)
(0.999778 -0.00139945 0)
(0.998606 -0.000253107 0)
(0.999159 0.000503074 0)
(0.999832 -0.000924124 0)
(0.998585 -0.000533385 0)
(0.998127 0.000785458 0)
(0.999145 0.000459074 0)
(0.999156 2.0506e-05 0)
(0.99818 0.000788173 0)
(0.998134 0.00144826 0)
(0.998845 0.00133021 0)
(0.998934 0.00132935 0)
(0.998415 0.00187851 0)
(0.99831 0.0024569 0)
(0.998891 0.00253421 0)
(0.999341 0.00245679 0)
(0.999318 0.00261016 0)
(0.999923 -0.000967635 0)
(0.998906 -0.000348443 0)
(0.999445 0.000249365 0)
(0.99976 -0.0011856 0)
(0.99877 -0.000364059 0)
(0.99911 0.000425846 0)
(0.999737 -0.00070753 0)
(0.998761 -0.000521334 0)
(0.998245 0.000667106 0)
(0.999052 0.000556571 0)
(0.999191 0.000133114 0)
(0.99839 0.000723018 0)
(0.998232 0.00140253 0)
(0.998825 0.00140638 0)
(0.999024 0.00136631 0)
(0.998643 0.00177303 0)
(0.998472 0.00231394 0)
(0.998901 0.00248863 0)
(0.999356 0.00242708 0)
(0.999423 0.00253364 0)
(0.999941 -0.000831754 0)
(0.999049 -0.00041839 0)
(0.999423 0.000173255 0)
(0.999736 -0.00099627 0)
(0.998916 -0.000436453 0)
(0.999088 0.000339656 0)
(0.999647 -0.000520321 0)
(0.998908 -0.000479652 0)
(0.998377 0.000554692 0)
(0.998988 0.000619761 0)
(0.999207 0.000252944 0)
(0.99858 0.000683238 0)
(0.998355 0.00133711 0)
(0.998822 0.00144917 0)
(0.999085 0.00140775 0)
(0.998838 0.00169838 0)
(0.998649 0.00217226 0)
(0.998942 0.00241264 0)
(0.999367 0.00239126 0)
(0.999502 0.00246011 0)
(0.999954 -0.000712062 0)
(0.99918 -0.000463261 0)
(0.999418 9.6562e-05 0)
(0.999711 -0.000832275 0)
(0.999045 -0.000475654 0)
(0.99909 0.000251591 0)
(0.999566 -0.000364867 0)
(0.999026 -0.000416045 0)
(0.998515 0.000457225 0)
(0.998952 0.000651148 0)
(0.99921 0.000366103 0)
(0.998748 0.000667327 0)
(0.998495 0.00126359 0)
(0.998841 0.00146005 0)
(0.999129 0.00144315 0)
(0.999 0.00164817 0)
(0.998828 0.00204301 0)
(0.999012 0.00231354 0)
(0.999382 0.00234272 0)
(0.999563 0.00238809 0)
(0.999965 -0.000607383 0)
(0.999298 -0.000486917 0)
(0.999426 2.17946e-05 0)
(0.999686 -0.000693786 0)
(0.999155 -0.000487241 0)
(0.999111 0.000167634 0)
(0.9995 -0.000241084 0)
(0.99912 -0.000338536 0)
(0.998654 0.000377906 0)
(0.998944 0.000656349 0)
(0.999208 0.000465301 0)
(0.99889 0.000672178 0)
(0.998642 0.00119227 0)
(0.998883 0.00144428 0)
(0.999165 0.00146584 0)
(0.999131 0.00161374 0)
(0.998998 0.00193136 0)
(0.999106 0.00220193 0)
(0.999409 0.00227796 0)
(0.999613 0.00231604 0)
(0.999973 -0.000516671 0)
(0.999403 -0.000493355 0)
(0.999446 -4.63185e-05 0)
(0.999664 -0.000579483 0)
(0.999248 -0.000477399 0)
(0.999146 9.36689e-05 0)
(0.999449 -0.000146403 0)
(0.999194 -0.000254575 0)
(0.998787 0.000319289 0)
(0.998962 0.000643674 0)
(0.999207 0.000545616 0)
(0.999008 0.000691157 0)
(0.998789 0.00112926 0)
(0.998945 0.00140877 0)
(0.999201 0.00147202 0)
(0.999236 0.00158681 0)
(0.999152 0.00183744 0)
(0.999214 0.0020878 0)
(0.999452 0.00219772 0)
(0.999657 0.00224128 0)
(0.99998 -0.000438585 0)
(0.999495 -0.000486078 0)
(0.999473 -0.000105143 0)
(0.999647 -0.00048722 0)
(0.999327 -0.000451832 0)
(0.999191 3.15257e-05 0)
(0.999414 -7.72123e-05 0)
(0.999251 -0.000171244 0)
(0.998911 0.000280742 0)
(0.999 0.000620371 0)
(0.999214 0.00060508 0)
(0.999106 0.000716893 0)
(0.998929 0.00107736 0)
(0.999024 0.00136097 0)
(0.999244 0.00146105 0)
(0.999323 0.00156085 0)
(0.999286 0.00175827 0)
(0.999327 0.00197822 0)
(0.999509 0.00210609 0)
(0.9997 0.00216138 0)
(0.999985 -0.000371812 0)
(0.999574 -0.000468371 0)
(0.999507 -0.000153293 0)
(0.999636 -0.000413928 0)
(0.999392 -0.000416429 0)
(0.999242 -1.67588e-05 0)
(0.999396 -2.7979e-05 0)
(0.999297 -9.34446e-05 0)
(0.999024 0.000259835 0)
(0.999054 0.000592291 0)
(0.99923 0.000644366 0)
(0.999188 0.000742801 0)
(0.999058 0.00103647 0)
(0.999113 0.00130743 0)
(0.999294 0.00143481 0)
(0.999397 0.00153125 0)
(0.999402 0.00168942 0)
(0.999439 0.00187657 0)
(0.999577 0.00200841 0)
(0.999747 0.00207544 0)
(0.999988 -0.00031496 0)
(0.999643 -0.000443274 0)
(0.999545 -0.00019039 0)
(0.999632 -0.000356336 0)
(0.999446 -0.000375526 0)
(0.999296 -5.06133e-05 0)
(0.999392 6.11997e-06 0)
(0.999336 -2.47407e-05 0)
(0.999125 0.000252982 0)
(0.999119 0.000563853 0)
(0.999256 0.000666009 0)
(0.999259 0.000764178 0)
(0.999174 0.00100434 0)
(0.999207 0.00125276 0)
(0.999352 0.00139651 0)
(0.999464 0.00149538 0)
(0.999501 0.00162645 0)
(0.999543 0.00178333 0)
(0.999653 0.00190947 0)
(0.999798 0.00198434 0)
(0.999991 -0.000266747 0)
(0.999701 -0.000413271 0)
(0.999584 -0.00021657 0)
(0.999634 -0.000311442 0)
(0.999492 -0.000332349 0)
(0.999351 -7.11677e-05 0)
(0.999402 2.83791e-05 0)
(0.999372 3.39234e-05 0)
(0.999215 0.000256252 0)
(0.99919 0.000537935 0)
(0.999294 0.000673451 0)
(0.999323 0.000778201 0)
(0.999277 0.000977892 0)
(0.999302 0.00119963 0)
(0.999418 0.00134972 0)
(0.999529 0.00145248 0)
(0.999588 0.00156577 0)
(0.999638 0.00169723 0)
(0.99973 0.00181241 0)
(0.999854 0.00189005 0)
(0.999993 -0.000225957 0)