/*--------------------------------*- C++ -*----------------------------------*\
| =========                 |                                                 |
| \\      /  F ield         | OpenFOAM: The Open Source CFD Toolbox           |
|  \\    /   O peration     | Version:  2106                                  |
|   \\  /    A nd           | Website:  www.openfoam.com                      |
|    \\/     M anipulation  |                                                 |
\*---------------------------------------------------------------------------*/
FoamFile
{
    version     2.0;
    format      ascii;
    arch        "LSB;label=32;scalar=64";
    class       volVectorField;
    location    "0.39";
    object      U;
}
// * * * * * * * * * * * * * * * * * * * * * * * * * * * * * * * * * * * * * //

dimensions      [0 1 -1 0 0 0 0];

internalField   nonuniform List<vector> 
9600
(
(0.847121 -0.0094665 0)
(1.12315 0.0115254 0)
(0.853892 -0.00861282 0)
(1.20653 0.00306759 0)
(0.919063 0.002991 0)
(1.16291 0.00723252 0)
(0.897872 0.000686285 0)
(1.144 -0.00321463 0)
(0.892015 -0.00395191 0)
(1.17375 -0.00170423 0)
(0.899746 -0.00193971 0)
(1.13955 0.00757074 0)
(0.915358 0.000471838 0)
(1.12935 0.00342958 0)
(0.897465 -0.00380728 0)
(1.12651 0.000659055 0)
(0.890009 -0.0019642 0)
(1.13178 0.00122024 0)
(0.879296 -0.000784594 0)
(1.13605 0.000317307 0)
(0.858816 -0.00934662 0)
(1.11882 0.0116712 0)
(0.872614 -0.00943537 0)
(1.19819 0.00260976 0)
(0.937054 0.00314434 0)
(1.15268 0.00760056 0)
(0.924054 0.000702872 0)
(1.12747 -0.00289517 0)
(0.919 -0.00463339 0)
(1.15157 -0.00155631 0)
(0.931046 -0.00158743 0)
(1.1134 0.00753816 0)
(0.955824 0.00050583 0)
(1.09304 0.00389908 0)
(0.953352 -0.00368123 0)
(1.07287 0.000865386 0)
(0.964392 -0.00194569 0)
(1.05293 0.0011458 0)
(0.983389 -3.64471e-05 0)
(1.01967 0.000468816 0)
(0.877579 -0.0092561 0)
(1.10897 0.0116422 0)
(0.899011 -0.0101912 0)
(1.17723 0.00221332 0)
(0.968484 0.00342564 0)
(1.13354 0.00792853 0)
(0.963016 0.000852355 0)
(1.09936 -0.00271394 0)
(0.958073 -0.00505464 0)
(1.11454 -0.00159602 0)
(0.975332 -0.00116439 0)
(1.07755 0.00724517 0)
(0.999139 0.000871912 0)
(1.05515 0.00393843 0)
(0.996981 -0.00314458 0)
(1.03157 0.000477873 0)
(1.002 -0.00127945 0)
(1.0175 0.000434003 0)
(1.00747 0.00120619 0)
(1.00375 0.000503127 0)
(0.900933 -0.00922311 0)
(1.09395 0.0114878 0)
(0.926011 -0.010755 0)
(1.14464 0.00177468 0)
(1.0013 0.00369487 0)
(1.10994 0.00809583 0)
(0.998734 0.00116821 0)
(1.06842 -0.00258234 0)
(0.990772 -0.00524095 0)
(1.07628 -0.0017907 0)
(1.00833 -0.000722423 0)
(1.05187 0.00693898 0)
(1.02272 0.00125996 0)
(1.03472 0.0039445 0)
(1.01277 -0.00260848 0)
(1.0154 0.000369574 0)
(1.00836 -0.000968539 0)
(1.00892 0.000284779 0)
(1.00652 0.0017085 0)
(1.00311 0.00111153 0)
(0.925913 -0.00923137 0)
(1.07551 0.0113106 0)
(0.949138 -0.0111174 0)
(1.10641 0.00118657 0)
(1.02484 0.00387497 0)
(1.08655 0.00819271 0)
(1.02138 0.00161738 0)
(1.04295 -0.00243352 0)
(1.00816 -0.00530784 0)
(1.04627 -0.00203289 0)
(1.02206 -0.000470332 0)
(1.03851 0.00673171 0)
(1.02926 0.00160818 0)
(1.02578 0.00407555 0)
(1.01478 -0.00204407 0)
(1.00951 0.000358578 0)
(1.00662 -0.000634652 0)
(1.00465 0.000160232 0)
(1.00362 0.00215113 0)
(1.00042 0.00160398 0)
(0.94929 -0.00926105 0)
(1.05608 0.0111362 0)
(0.96656 -0.0113007 0)
(1.06992 0.000529026 0)
(1.03465 0.00393793 0)
(1.06588 0.00827871 0)
(1.0299 0.00211305 0)
(1.026 -0.00224504 0)
(1.01242 -0.0052982 0)
(1.02608 -0.00224504 0)
(1.02178 -0.000436392 0)
(1.03015 0.00657924 0)
(1.02705 0.00194023 0)
(1.01996 0.00425982 0)
(1.01237 -0.00149758 0)
(1.00584 0.0004001 0)
(1.00357 -0.000314954 0)
(1.00077 7.93727e-05 0)
(1.00007 0.00251922 0)
(0.997316 0.00214011 0)
(0.968531 -0.00929619 0)
(1.03795 0.010978 0)
(0.978663 -0.0113353 0)
(1.0403 -7.64328e-05 0)
(1.03254 0.00388401 0)
(1.04819 0.00835351 0)
(1.02865 0.00257524 0)
(1.01617 -0.00202588 0)
(1.01 -0.00522083 0)
(1.01338 -0.00241191 0)
(1.01526 -0.000529213 0)
(1.02196 0.00641545 0)
(1.02115 0.00224449 0)
(1.0145 0.00441402 0)
(1.00881 -0.000986085 0)
(1.00287 0.000444835 0)
(1.00048 3.71449e-06 0)
(0.997595 6.95776e-05 0)
(0.996505 0.00280397 0)
(0.994476 0.00270109 0)
(0.982476 -0.00932054 0)
(1.02275 0.0108489 0)
(0.98685 -0.0112626 0)
(1.01922 -0.0005615 0)
(1.02353 0.00374624 0)
(1.03315 0.00839385 0)
(1.02293 0.00295029 0)
(1.0108 -0.00180928 0)
(1.006 -0.00508965 0)
(1.00566 -0.00253184 0)
(1.00773 -0.000642941 0)
(1.01351 0.00622044 0)
(1.01433 0.00249278 0)
(1.00946 0.00449588 0)
(1.00548 -0.00052554 0)
(1.00067 0.000476518 0)
(0.998136 0.000321958 0)
(0.995498 0.000137898 0)
(0.99396 0.00302107 0)
(0.992397 0.00327124 0)
(0.991345 -0.00931949 0)
(1.0113 0.0107411 0)
(0.992431 -0.0111274 0)
(1.00576 -0.000900316 0)
(1.01275 0.0035764 0)
(1.02082 0.00837881 0)
(1.01651 0.00321229 0)
(1.00784 -0.00162755 0)
(1.00283 -0.00491833 0)
(1.00122 -0.00260355 0)
(1.00162 -0.000714429 0)
(1.00611 0.00600544 0)
(1.0083 0.00266859 0)
(1.00541 0.00449093 0)
(1.003 -0.000131928 0)
(0.999337 0.00050121 0)
(0.996821 0.000607611 0)
(0.994532 0.000271858 0)
(0.992785 0.00318046 0)
(0.991421 0.00383901 0)
(0.996242 -0.00928608 0)
(1.00364 0.0106333 0)
(0.996217 -0.0109613 0)
(0.997972 -0.00109863 0)
(1.00359 0.00341373 0)
(1.01152 0.00829774 0)
(1.01127 0.0033642 0)
(1.00613 -0.00149504 0)
(1.00097 -0.00472029 0)
(0.998896 -0.00263184 0)
(0.997604 -0.000723938 0)
(1.00078 0.00578274 0)
(1.00393 0.00277766 0)
(1.0026 0.00440647 0)
(1.00145 0.000193295 0)
(0.998727 0.000520057 0)
(0.996374 0.000848031 0)
(0.994422 0.000462505 0)
(0.992697 0.00329597 0)
(0.991421 0.00438599 0)
(0.998534 -0.00922183 0)
(0.999156 0.0105087 0)
(0.998653 -0.0107777 0)
(0.993926 -0.00118902 0)
(0.997331 0.0032752 0)
(1.0053 0.00815599 0)
(1.00773 0.00342991 0)
(1.00509 -0.00140982 0)
(1.00011 -0.00450674 0)
(0.997848 -0.0026277 0)
(0.995434 -0.000679245 0)
(0.997614 0.00555925 0)
(1.00131 0.00283719 0)
(1.00093 0.00426658 0)
(1.00059 0.000459063 0)
(0.998568 0.000539973 0)
(0.996432 0.00104288 0)
(0.994755 0.000695681 0)
(0.993178 0.00338011 0)
(0.991986 0.00488883 0)
(0.999397 -0.00913299 0)
(0.996935 0.0103604 0)
(1.00007 -0.0105796 0)
(0.99212 -0.00121191 0)
(0.993801 0.00316444 0)
(1.0017 0.00796967 0)
(1.00566 0.00344143 0)
(1.00443 -0.00136088 0)
(0.999816 -0.00428494 0)
(0.997488 -0.00260302 0)
(0.994522 -0.000600286 0)
(0.996117 0.00533858 0)
(1.00001 0.00286538 0)
(1.00008 0.0040981 0)
(1.00017 0.000677197 0)
(0.998606 0.000570322 0)
(0.996664 0.00119789 0)
(0.995191 0.000959684 0)
(0.993796 0.0034481 0)
(0.992716 0.00532308 0)
(0.999622 -0.00902656 0)
(0.996041 0.0101887 0)
(1.00077 -0.0103667 0)
(0.991523 -0.00120099 0)
(0.992182 0.00307696 0)
(0.999913 0.00775227 0)
(1.00458 0.0034257 0)
(1.004 -0.00133636 0)
(0.999749 -0.00405815 0)
(0.997443 -0.00256793 0)
(0.994305 -0.000504387 0)
(0.99561 0.00512156 0)
(0.999497 0.0028741 0)
(0.999706 0.00392661 0)
(0.999955 0.000857552 0)
(0.998687 0.00061935 0)
(0.996881 0.0013165 0)
(0.995555 0.00124198 0)
(0.99433 0.00352448 0)
(0.993376 0.00567587 0)
(0.999638 -0.00890783 0)
(0.995774 0.00999662 0)
(1.00105 -0.0101379 0)
(0.991497 -0.00117892 0)
(0.991637 0.00300655 0)
(0.999167 0.00751277 0)
(1.00404 0.0034013 0)
(1.0037 -0.00132725 0)
(0.999739 -0.00382719 0)
(0.997515 -0.00252874 0)
(0.994395 -0.000403213 0)
(0.995559 0.00490955 0)
(0.99935 0.00286755 0)
(0.999557 0.00376913 0)
(0.999826 0.0010086 0)
(0.998749 0.000690046 0)
(0.997026 0.00141168 0)
(0.995808 0.00152332 0)
(0.994728 0.00362798 0)
(0.993897 0.00594612 0)
(0.999623 -0.00877972 0)
(0.995731 0.00978716 0)
(1.0011 -0.00989255 0)
(0.991696 -0.00115911 0)
(0.991585 0.00294963 0)
(0.998912 0.00725653 0)
(1.00373 0.00337809 0)
(1.00347 -0.00132755 0)
(0.999725 -0.00359342 0)
(0.997612 -0.00248649 0)
(0.994588 -0.000305082 0)
(0.99566 0.00470608 0)
(0.999325 0.00284664 0)
(0.999488 0.00363135 0)
(0.999722 0.00113601 0)
(0.998784 0.00077942 0)
(0.997112 0.00150707 0)
(0.995977 0.00178412 0)
(0.995025 0.00375902 0)
(0.994301 0.00614311 0)
(0.999627 -0.00864334 0)
(0.995738 0.00956219 0)
(1.00105 -0.00963086 0)
(0.991959 -0.00114817 0)
(0.991714 0.00290487 0)
(0.998849 0.00698587 0)
(1.00352 0.00336073 0)
(1.00328 -0.00133488 0)
(0.999697 -0.00335719 0)
(0.997703 -0.00244147 0)
(0.994797 -0.000214224 0)
(0.995785 0.00451618 0)
(0.999324 0.00280854 0)
(0.999439 0.0035142 0)
(0.999626 0.0012487 0)
(0.998806 0.000881911 0)
(0.997171 0.00161775 0)
(0.996105 0.00201504 0)
(0.995269 0.00390676 0)
(0.994635 0.00628914 0)
(0.99965 -0.00849893 0)
(0.995743 0.00932252 0)
(1.00096 -0.00935294 0)
(0.992227 -0.00114884 0)
(0.991892 0.00287202 0)
(0.998848 0.0067012 0)
(1.00333 0.00335031 0)
(1.00312 -0.00134618 0)
(0.999663 -0.00312014 0)
(0.997785 -0.00239282 0)
(0.994999 -0.000133304 0)
(0.995898 0.00434329 0)
(0.999318 0.00275059 0)
(0.999393 0.00341742 0)
(0.999536 0.00134941 0)
(0.998827 0.000987149 0)
(0.997226 0.00175031 0)
(0.996224 0.00222439 0)
(0.995498 0.00405613 0)
(0.994938 0.00640437 0)
(0.999684 -0.00834639 0)
(0.995744 0.00906835 0)
(1.00086 -0.00905877 0)
(0.992487 -0.00116208 0)
(0.992076 0.00285088 0)
(0.998864 0.00640338 0)
(1.00315 0.00334551 0)
(1.00296 -0.00136007 0)
(0.999628 -0.00288312 0)
(0.99786 -0.00233545 0)
(0.995193 -6.65898e-05 0)
(0.995995 0.00419003 0)
(0.999304 0.00267549 0)
(0.999347 0.00333643 0)
(0.99945 0.00144354 0)
(0.998852 0.00108567 0)
(0.997288 0.00190801 0)
(0.996345 0.00242469 0)
(0.995728 0.00419202 0)
(0.995232 0.00650036 0)
(0.999723 -0.00818555 0)
(0.995745 0.00879958 0)
(1.00076 -0.00874811 0)
(0.992741 -0.00118881 0)
(0.992256 0.00284106 0)
(0.998883 0.0060929 0)
(1.00298 0.00334611 0)
(1.0028 -0.00137644 0)
(0.999597 -0.00264807 0)
(0.997932 -0.00226694 0)
(0.995385 -1.81259e-05 0)
(0.996082 0.00405679 0)
(0.999284 0.00258842 0)
(0.999301 0.00326331 0)
(0.999365 0.00154844 0)
(0.998883 0.00116788 0)
(0.997359 0.00208169 0)
(0.996472 0.0026232 0)
(0.995967 0.00430479 0)
(0.995526 0.0065787 0)
(0.999764 -0.0080164 0)
(0.995748 0.00851643 0)
(1.00066 -0.00842149 0)
(0.992994 -0.00122804 0)
(0.992434 0.0028419 0)
(0.998903 0.00576964 0)
(1.00281 0.00335083 0)
(1.00265 -0.00139166 0)
(0.99957 -0.00242121 0)
(0.998004 -0.0021837 0)
(0.995578 8.67504e-06 0)
(0.996161 0.0039433 0)
(0.99926 0.00249351 0)
(0.999256 0.00318928 0)
(0.999278 0.00166823 0)
(0.998916 0.00123378 0)
(0.997441 0.00225862 0)
(0.996601 0.00282742 0)
(0.996212 0.00438935 0)
(0.995823 0.00663071 0)
(0.999805 -0.00783868 0)
(0.995755 0.00821862 0)
(1.00055 -0.00807887 0)
(0.99325 -0.00128032 0)
(0.992612 0.00285401 0)
(0.998923 0.0054372 0)
(1.00264 0.00335659 0)
(1.0025 -0.00140206 0)
(0.999545 -0.00220536 0)
(0.998073 -0.00208181 0)
(0.995774 1.4847e-05 0)
(0.996236 0.00384576 0)
(0.999231 0.00239631 0)
(0.999214 0.00310553 0)
(0.999189 0.00180432 0)
(0.998952 0.00129645 0)
(0.997534 0.00242826 0)
(0.996731 0.00304534 0)
(0.996461 0.00444632 0)
(0.996125 0.00664811 0)
(0.999846 -0.00765244 0)
(0.995766 0.00790663 0)
(1.00045 -0.007721 0)
(0.993511 -0.00134562 0)
(0.992789 0.00287635 0)
(0.998945 0.00509859 0)
(1.00247 0.0033601 0)
(1.00235 -0.00140515 0)
(0.999523 -0.00200414 0)
(0.99814 -0.00196023 0)
(0.995974 4.01542e-06 0)
(0.996309 0.00375818 0)
(0.999198 0.00230394 0)
(0.999181 0.00300944 0)
(0.999101 0.00195823 0)
(0.998989 0.00136361 0)
(0.997641 0.00257716 0)
(0.996859 0.00328124 0)
(0.996708 0.00448979 0)
(0.996432 0.00662632 0)
(0.999887 -0.00745789 0)
(0.995781 0.00758127 0)
(1.00035 -0.00734931 0)
(0.993776 -0.00142167 0)
(0.992967 0.00290631 0)
(0.998968 0.00475318 0)
(1.0023 0.00336036 0)
(1.0022 -0.00139711 0)
(0.999504 -0.00182282 0)
(0.998203 -0.00181641 0)
(0.996177 -2.20209e-05 0)
(0.996382 0.00367583 0)
(0.999162 0.002227 0)
(0.999157 0.00289559 0)
(0.999015 0.00212849 0)
(0.999026 0.00144476 0)
(0.997763 0.00269359 0)
(0.996987 0.0035304 0)
(0.996946 0.00454509 0)
(0.996744 0.00656466 0)
(0.999927 -0.00725485 0)
(0.995802 0.00724271 0)
(1.00024 -0.00696446 0)
(0.994047 -0.00150811 0)
(0.993146 0.00294218 0)
(0.998994 0.00440558 0)
(1.00214 0.00335362 0)
(1.00204 -0.00137319 0)
(0.999488 -0.0016648 0)
(0.998261 -0.00165237 0)
(0.996381 -5.85613e-05 0)
(0.996457 0.00359302 0)
(0.999121 0.00217276 0)
(0.999145 0.00276152 0)
(0.998935 0.00230551 0)
(0.99906 0.00155118 0)
(0.997901 0.00277178 0)
(0.997118 0.00376658 0)
(0.997172 0.00462826 0)
(0.997057 0.00647488 0)
(0.999967 -0.00704356 0)
(0.995828 0.0068918 0)
(1.00014 -0.00656792 0)
(0.994323 -0.00160363 0)
(0.993324 0.00298225 0)
(0.999021 0.00406029 0)
(1.00198 0.0033346 0)
(1.00189 -0.00133051 0)
(0.999476 -0.00153215 0)
(0.998314 -0.00146755 0)
(0.996585 -9.91915e-05 0)
(0.996536 0.00350293 0)
(0.999074 0.00214775 0)
(0.999145 0.00261532 0)
(0.998864 0.00247667 0)
(0.999088 0.00168508 0)
(0.998053 0.00282383 0)
(0.997257 0.00396639 0)
(0.997382 0.0047351 0)
(0.997368 0.00637053 0)
(1.00001 -0.00682429 0)
(0.99586 0.00652962 0)
(1.00003 -0.00616224 0)
(0.994604 -0.00170583 0)
(0.993503 0.00302505 0)
(0.999049 0.00372006 0)
(1.00182 0.00330017 0)
(1.00173 -0.00126498 0)
(0.999468 -0.00142473 0)
(0.998362 -0.0012661 0)
(0.996788 -0.000141479 0)
(0.996621 0.00340094 0)
(0.999021 0.00215317 0)
(0.999156 0.00246424 0)
(0.998806 0.00263634 0)
(0.999109 0.0018469 0)
(0.998216 0.00286329 0)
(0.997408 0.00412943 0)
(0.997578 0.00485494 0)
(0.997671 0.00625607 0)
(1.00005 -0.00659708 0)
(0.9959 0.00615764 0)
(0.999923 -0.00574985 0)
(0.994889 -0.00181296 0)
(0.993683 0.00306761 0)
(0.999075 0.00339004 0)
(1.00167 0.00324679 0)
(1.00158 -0.00117477 0)
(0.999464 -0.00134424 0)
(0.998405 -0.00105534 0)
(0.996986 -0.000178717 0)
(0.996714 0.00328128 0)
(0.998963 0.00218684 0)
(0.999177 0.00231575 0)
(0.998765 0.00277664 0)
(0.999121 0.00203949 0)
(0.998384 0.00289213 0)
(0.997572 0.00425346 0)
(0.997759 0.00498378 0)
(0.997962 0.00613911 0)
(1.00008 -0.00636274 0)
(0.995947 0.00577771 0)
(0.999813 -0.00533197 0)
(0.995177 -0.00192455 0)
(0.993864 0.00310886 0)
(0.9991 0.00307269 0)
(1.00152 0.00317132 0)
(1.00141 -0.00105797 0)
(0.999465 -0.00129005 0)
(0.998445 -0.000837626 0)
(0.997178 -0.000201116 0)
(0.996817 0.00314242 0)
(0.998901 0.00224862 0)
(0.999206 0.00217947 0)
(0.998744 0.00288246 0)
(0.999125 0.00226328 0)
(0.998553 0.00292277 0)
(0.997752 0.00432969 0)
(0.997927 0.00511285 0)
(0.998236 0.00603666 0)
(1.00012 -0.00612172 0)
(0.996001 0.00539127 0)
(0.999702 -0.00491152 0)
(0.995469 -0.00203758 0)
(0.994046 0.00314481 0)
(0.999122 0.00277242 0)
(1.00139 0.00307085 0)
(1.00125 -0.000913397 0)
(0.999469 -0.0012583 0)
(0.998483 -0.000620228 0)
(0.997361 -0.000202774 0)
(0.996931 0.00298666 0)
(0.998836 0.00233435 0)
(0.999239 0.00206874 0)
(0.998749 0.00294142 0)
(0.999123 0.00250542 0)
(0.998714 0.00297417 0)
(0.997948 0.00435599 0)
(0.998088 0.00522211 0)
(0.998484 0.00597121 0)
(1.00016 -0.00587389 0)
(0.996064 0.0049995 0)
(0.99959 -0.0044911 0)
(0.995761 -0.00215148 0)
(0.994231 0.00317315 0)
(0.99914 0.00249327 0)
(1.00126 0.00294273 0)
(1.00108 -0.00074382 0)
(0.999475 -0.0012435 0)
(0.99852 -0.000410781 0)
(0.997532 -0.000183787 0)
(0.997056 0.00280719 0)
(0.998772 0.00243508 0)
(0.99927 0.00200111 0)
(0.998778 0.00295595 0)
(0.999122 0.00274048 0)
(0.998863 0.00305609 0)
(0.998157 0.00434472 0)
(0.998251 0.00528934 0)
(0.998705 0.0059474 0)
(1.00019 -0.00562002 0)
(0.996135 0.00460417 0)
(0.999477 -0.00407217 0)
(0.996054 -0.00226507 0)
(0.994417 0.00319278 0)
(0.999153 0.00223715 0)
(1.00114 0.0027881 0)
(1.00091 -0.000553406 0)
(0.999483 -0.00124053 0)
(0.998557 -0.000216559 0)
(0.997689 -0.000133377 0)
(0.997193 0.00260276 0)
(0.998713 0.00253814 0)
(0.999297 0.00198075 0)
(0.998831 0.00293535 0)
(0.999128 0.00294586 0)
(0.998995 0.00317107 0)
(0.998369 0.00432258 0)
(0.998422 0.00530313 0)
(0.998901 0.00593739 0)
(1.00022 -0.00536122 0)
(0.996215 0.0042077 0)
(0.999362 -0.00365649 0)
(0.996346 -0.00237581 0)
(0.994605 0.00320302 0)
(0.999161 0.00200745 0)
(1.00103 0.00260729 0)
(1.00073 -0.000343043 0)
(0.99949 -0.00124185 0)
(0.998598 -4.42374e-05 0)
(0.997828 -3.66164e-05 0)
(0.997339 0.00238619 0)
(0.998666 0.00263066 0)
(0.999315 0.00201329 0)
(0.998903 0.00289647 0)
(0.999148 0.00310788 0)
(0.999114 0.0033053 0)
(0.998578 0.00431791 0)
(0.998602 0.00527334 0)
(0.99908 0.00590617 0)
(1.00025 -0.00509785 0)
(0.996303 0.00381212 0)
(0.999247 -0.0032457 0)
(0.996636 -0.00248307 0)
(0.994795 0.00320092 0)
(0.99916 0.00181242 0)
(1.00094 0.0023951 0)
(1.00055 -0.000117947 0)
(0.999494 -0.00123471 0)
(0.998646 9.39279e-05 0)
(0.99795 0.000107756 0)
(0.997491 0.0021702 0)
(0.998634 0.00269255 0)
(0.999324 0.00210192 0)
(0.998986 0.00286081 0)
(0.999185 0.00322417 0)
(0.999225 0.0034277 0)
(0.998777 0.00433917 0)
(0.998782 0.00523618 0)
(0.99925 0.00584428 0)
(1.00028 -0.00483017 0)
(0.996401 0.00341808 0)
(0.999131 -0.00284096 0)
(0.996922 -0.0025866 0)
(0.994987 0.00318197 0)
(0.999148 0.00165322 0)
(1.00086 0.0021577 0)
(1.00037 0.000112829 0)
(0.999491 -0.00121331 0)
(0.998704 0.000181524 0)
(0.998053 0.000294689 0)
(0.997641 0.00197475 0)
(0.998623 0.00270778 0)
(0.999326 0.00222793 0)
(0.999071 0.00284311 0)
(0.999236 0.00330391 0)
(0.999335 0.00352525 0)
(0.998969 0.00435725 0)
(0.998958 0.00521726 0)
(0.999404 0.00577911 0)
(1.0003 -0.00455953 0)
(0.996507 0.00302669 0)
(0.999014 -0.0024442 0)
(0.997204 -0.00268443 0)
(0.995183 0.0031435 0)
(0.999124 0.00153132 0)
(1.0008 0.00189741 0)
(1.0002 0.000344049 0)
(0.999479 -0.00116371 0)
(0.998775 0.000213948 0)
(0.998143 0.00050919 0)
(0.997784 0.00182399 0)
(0.998634 0.00267077 0)
(0.999328 0.00236346 0)
(0.999155 0.00285199 0)
(0.999299 0.00335301 0)
(0.999442 0.0036081 0)
(0.999159 0.00435437 0)
(0.999133 0.00519175 0)
(0.999535 0.00574219 0)
(1.00032 -0.00428599 0)
(0.996622 0.00263903 0)
(0.998897 -0.00205801 0)
(0.99748 -0.00277468 0)
(0.995384 0.00307905 0)
(0.999085 0.00145076 0)
(1.00074 0.00161556 0)
(1.00003 0.000564041 0)
(0.999452 -0.00106969 0)
(0.998859 0.000190784 0)
(0.998225 0.000731339 0)
(0.997911 0.00173658 0)
(0.998666 0.00258841 0)
(0.999334 0.00248564 0)
(0.999233 0.00289906 0)
(0.999369 0.00338345 0)
(0.999548 0.00367086 0)
(0.999343 0.00434726 0)
(0.999315 0.00513344 0)
(0.999653 0.00571498 0)
(1.00034 -0.00401057 0)
(0.996747 0.00225546 0)
(0.998779 -0.00168086 0)
(0.997747 -0.00285626 0)
(0.995592 0.00298403 0)
(0.999031 0.00141504 0)
(1.0007 0.00131944 0)
(0.999876 0.000763582 0)
(0.999405 -0.000922214 0)
(0.998954 0.00012406 0)
(0.99831 0.000934046 0)
(0.998018 0.0017253 0)
(0.998713 0.00248814 0)
(0.999355 0.00257429 0)
(0.999305 0.00297914 0)
(0.99944 0.00341895 0)
(0.999654 0.00370034 0)
(0.99952 0.00433833 0)
(0.999501 0.00505801 0)
(0.999773 0.00565264 0)
(1.00035 -0.00373332 0)
(0.996881 0.00187676 0)
(0.998662 -0.00131783 0)
(0.998003 -0.00291771 0)
(0.995809 0.00285264 0)
(0.99896 0.00142963 0)
(1.00066 0.00101902 0)
(0.999738 0.000929626 0)
(0.999337 -0.000716664 0)
(0.999055 4.18549e-05 0)
(0.998405 0.00109492 0)
(0.998106 0.00178387 0)
(0.998764 0.00239605 0)
(0.999392 0.00261724 0)
(0.999376 0.0030657 0)
(0.999504 0.00347361 0)
(0.999756 0.00370677 0)
(0.999691 0.00430905 0)
(0.999684 0.00498966 0)
(0.999901 0.00555414 0)
(1.00036 -0.0034565 0)
(0.997024 0.00150675 0)
(0.998546 -0.000970037 0)
(0.998246 -0.00295625 0)
(0.996038 0.00268003 0)
(0.998874 0.00148873 0)
(1.00063 0.000730166 0)
(0.999622 0.00104198 0)
(0.999248 -0.000461992 0)
(0.999154 -3.54162e-05 0)
(0.998517 0.00119608 0)
(0.998178 0.00189137 0)
(0.998811 0.00233137 0)
(0.999447 0.00261136 0)
(0.999455 0.00313332 0)
(0.99956 0.0035501 0)
(0.999848 0.00371708 0)
(0.999861 0.00424394 0)
(0.999864 0.00491732 0)
(1.00003 0.00545032 0)
(1.00036 -0.0031809 0)
(0.997176 0.00114627 0)
(0.998433 -0.000640023 0)
(0.998471 -0.00296436 0)
(0.99628 0.00246186 0)
(0.998775 0.00158051 0)
(1.0006 0.000467223 0)
(0.999534 0.00109184 0)
(0.999141 -0.000175958 0)
(0.999243 -9.36705e-05 0)
(0.998649 0.00122412 0)
(0.998242 0.00202364 0)
(0.998845 0.00231425 0)
(0.999514 0.00257325 0)
(0.999549 0.00316557 0)
(0.999614 0.00363635 0)
(0.99992 0.00375641 0)
(1.00002 0.00415535 0)
(1.00005 0.00480817 0)
(1.00017 0.00534224 0)
(1.00036 -0.00290554 0)
(0.997338 0.000795896 0)
(0.998325 -0.000335268 0)
(0.998677 -0.00293634 0)
(0.996536 0.00219427 0)
(0.998667 0.0016949 0)
(1.00056 0.000246883 0)
(0.999477 0.0010715 0)
(0.99902 0.000139855 0)
(0.99931 -0.000105641 0)
(0.998803 0.00118405 0)
(0.99831 0.00215326 0)
(0.998861 0.00235301 0)
(0.999584 0.00252849 0)
(0.999663 0.00315612 0)
(0.999674 0.00370537 0)
(0.999969 0.00382739 0)
(1.00016 0.00408231 0)
(1.00024 0.00465674 0)
(1.00033 0.00520351 0)
(1.00036 -0.00263527 0)
(0.997508 0.000462423 0)
(0.998224 -6.08843e-05 0)
(0.998858 -0.00286869 0)
(0.996808 0.0018783 0)
(0.998556 0.00181813 0)
(1.0005 8.23025e-05 0)
(0.999453 0.000986673 0)
(0.998898 0.000461344 0)
(0.999348 -5.36811e-05 0)
(0.998974 0.00109592 0)
(0.998393 0.00225356 0)
(0.99886 0.00244161 0)
(0.999647 0.00249593 0)
(0.999795 0.00310641 0)
(0.999752 0.00373907 0)
(1 0.00390969 0)
(1.00027 0.00405392 0)
(1.00042 0.00449416 0)
(1.0005 0.00501586 0)
(1.00035 -0.0023695 0)
(0.997686 0.000148371 0)
(0.998134 0.000176193 0)
(0.999011 -0.00275194 0)
(0.997093 0.0015287 0)
(0.998448 0.00192966 0)
(1.00043 -1.26758e-05 0)
(0.999462 0.000859097 0)
(0.998782 0.000751291 0)
(0.99935 6.25656e-05 0)
(0.999154 0.000986089 0)
(0.998502 0.00230846 0)
(0.998846 0.00256942 0)
(0.99969 0.00249283 0)
(0.999937 0.0030237 0)
(0.999855 0.00373107 0)
(1.00003 0.00397887 0)
(1.00033 0.00406057 0)
(1.00057 0.00436398 0)
(1.00068 0.00479702 0)
(1.00034 -0.00211177 0)
(0.997871 -0.000139754 0)
(0.998057 0.000375595 0)
(0.999135 -0.00258722 0)
(0.997389 0.00116018 0)
(0.998351 0.00201121 0)
(1.00033 -3.13251e-05 0)
(0.999499 0.000705083 0)
(0.998684 0.00100151 0)
(0.999316 0.000244028 0)
(0.999332 0.000878916 0)
(0.998643 0.00230175 0)
(0.998829 0.00271355 0)
(0.999704 0.00253425 0)
(1.00008 0.00292657 0)
(0.999985 0.00367844 0)
(1.00007 0.00402534 0)
(1.00037 0.00407735 0)
(1.00068 0.00427348 0)
(1.00085 0.00459605 0)
(1.00032 -0.00186289 0)
(0.998061 -0.00040194 0)
(0.997997 0.00053422 0)
(0.999228 -0.00237219 0)
(0.997692 0.000788181 0)
(0.998273 0.00204873 0)
(1.00022 1.42724e-05 0)
(0.999556 0.000539543 0)
(0.998613 0.00119299 0)
(0.999248 0.000476568 0)
(0.999494 0.000798183 0)
(0.998818 0.00222808 0)
(0.998823 0.00284215 0)
(0.999685 0.00262498 0)
(1.00021 0.0028383 0)
(1.00014 0.00357762 0)
(1.00012 0.00404463 0)
(1.00039 0.00410359 0)
(1.00075 0.00419521 0)
(1.00098 0.00443323 0)
(1.0003 -0.00162449 0)
(0.998254 -0.000632896 0)
(0.997957 0.000644167 0)
(0.999289 -0.00211419 0)
(0.997995 0.00043042 0)
(0.998222 0.00202879 0)
(1.00008 0.000113453 0)
(0.999626 0.000385371 0)
(0.998578 0.0013214 0)
(0.999154 0.000738382 0)
(0.999626 0.000760841 0)
(0.999025 0.0020986 0)
(0.998843 0.00293212 0)
(0.999637 0.00275841 0)
(1.00031 0.00278465 0)
(1.00032 0.00342951 0)
(1.00021 0.00401143 0)
(1.0004 0.0041435 0)
(1.00079 0.00413249 0)
(1.00108 0.00428734 0)
(1.00028 -0.0014018 0)
(0.998447 -0.000823541 0)
(0.997941 0.000702649 0)
(0.999321 -0.00182978 0)
(0.99829 0.000104863 0)
(0.998201 0.00195352 0)
(0.999923 0.000253748 0)
(0.999699 0.000253754 0)
(0.998581 0.00139356 0)
(0.999043 0.00101433 0)
(0.999717 0.000777592 0)
(0.999254 0.00192926 0)
(0.998905 0.00296229 0)
(0.999571 0.00291253 0)
(1.00036 0.00278682 0)
(1.00051 0.00326831 0)
(1.00033 0.00390519 0)
(1.0004 0.00416574 0)
(1.00078 0.00411122 0)
(1.00114 0.00414536 0)
(1.00026 -0.00119246 0)
(0.998638 -0.000980541 0)
(0.997949 0.00071586 0)
(0.999326 -0.00152689 0)
(0.998572 -0.000178192 0)
(0.998216 0.00182634 0)
(0.999758 0.000419502 0)
(0.999769 0.000153977 0)
(0.998628 0.00140418 0)
(0.998926 0.00128823 0)
(0.999758 0.000861757 0)
(0.999491 0.00175081 0)
(0.99902 0.00291726 0)
(0.999506 0.0030536 0)
(1.00037 0.00284 0)
(1.00067 0.00313671 0)
(1.0005 0.00373995 0)
(1.00044 0.00412585 0)
(1.00074 0.00412481 0)
(1.00116 0.00403684 0)
(1.00023 -0.00100093 0)
(0.998824 -0.00109614 0)
(0.997983 0.000683117 0)
(0.99931 -0.00122001 0)
(0.998832 -0.00040744 0)
(0.998267 0.0016512 0)
(0.999591 0.000588429 0)
(0.999825 9.82124e-05 0)
(0.998716 0.00135942 0)
(0.99882 0.001535 0)
(0.999745 0.0010126 0)
(0.999714 0.00159708 0)
(0.999186 0.00279724 0)
(0.999462 0.00315545 0)
(1.00033 0.00293163 0)
(1.00079 0.00305337 0)
(1.00068 0.00355761 0)
(1.00052 0.00400789 0)
(1.0007 0.00411494 0)
(1.00112 0.00398009 0)
(1.0002 -0.000828291 0)
(0.999001 -0.00117133 0)
(0.998043 0.000614612 0)
(0.999277 -0.000923844 0)
(0.999066 -0.000574915 0)
(0.998353 0.0014471 0)
(0.999429 0.00074518 0)
(0.999862 8.23334e-05 0)
(0.99884 0.00127073 0)
(0.99874 0.00174006 0)
(0.999684 0.00121415 0)
(0.999903 0.0014927 0)
(0.999396 0.00261754 0)
(0.999461 0.00319511 0)
(1.00026 0.00303732 0)
(1.00085 0.00301466 0)
(1.00085 0.00339693 0)
(1.00064 0.00384524 0)
(1.00068 0.00404286 0)
(1.00103 0.00395012 0)
(1.00017 -0.000673352 0)
(0.999167 -0.00121125 0)
(0.998128 0.000519498 0)
(0.999233 -0.000644627 0)
(0.999268 -0.000676902 0)
(0.998471 0.0012171 0)
(0.99928 0.000887781 0)
(0.999876 0.000109798 0)
(0.998996 0.0011439 0)
(0.998698 0.0018886 0)
(0.999585 0.00145029 0)
(1.00004 0.00145442 0)
(0.999632 0.00241081 0)
(0.999514 0.00316515 0)
(1.00018 0.00313232 0)
(1.00087 0.00301283 0)
(1.00099 0.00326133 0)
(1.00078 0.00367478 0)
(1.00071 0.0039179 0)
(1.00095 0.00389733 0)
(1.00015 -0.000539239 0)
(0.99932 -0.00121157 0)
(0.998236 0.000402134 0)
(0.999186 -0.000396125 0)
(0.999435 -0.000711973 0)
(0.998616 0.000976231 0)
(0.999154 0.000995195 0)
(0.999859 0.000185117 0)
(0.99917 0.00100062 0)
(0.998708 0.00195611 0)
(0.999464 0.0016957 0)
(1.00011 0.00149165 0)
(0.999874 0.00220908 0)
(0.999627 0.00305447 0)
(1.00012 0.00319792 0)
(1.00084 0.00304691 0)
(1.0011 0.00315625 0)
(1.00092 0.00351166 0)
(1.00076 0.00377851 0)
(1.00088 0.00380001 0)
(1.00012 -0.000424028 0)
(0.999457 -0.00118128 0)
(0.998362 0.000276211 0)
(0.999142 -0.000182982 0)
(0.999566 -0.000695193 0)
(0.99878 0.000745581 0)
(0.999059 0.0010618 0)
(0.999816 0.00029592 0)
(0.999349 0.000868962 0)
(0.998775 0.00193909 0)
(0.999345 0.00191494 0)
(1.00011 0.00160482 0)
(1.00009 0.00205504 0)
(0.999793 0.00287013 0)
(1.0001 0.00319777 0)
(1.00078 0.00308939 0)
(1.00116 0.00308827 0)
(1.00105 0.00335097 0)
(1.00082 0.00364284 0)
(1.00083 0.00368461 0)
(1.0001 -0.000327028 0)
(0.999577 -0.00112384 0)
(0.998504 0.000148981 0)
(0.999105 -1.13847e-05 0)
(0.99966 -0.000631498 0)
(0.998955 0.000529124 0)
(0.998999 0.00109163 0)
(0.999751 0.000435727 0)
(0.999515 0.000759667 0)
(0.998894 0.00184944 0)
(0.999253 0.00208099 0)
(1.00006 0.00176146 0)
(1.00025 0.00196699 0)
(0.999986 0.00266771 0)
(1.00013 0.00311357 0)
(1.00072 0.00310587 0)
(1.00117 0.00305478 0)
(1.00117 0.00319735 0)
(1.0009 0.00348907 0)
(1.00079 0.00357339 0)
(1.00007 -0.000248182 0)
(0.999681 -0.00104379 0)
(0.998655 3.06222e-05 0)
(0.999082 0.000117652 0)
(0.999722 -0.000533916 0)
(0.999133 0.000345026 0)
(0.998981 0.0010722 0)
(0.99967 0.000592996 0)
(0.999655 0.000691185 0)
(0.999059 0.00170151 0)
(0.999205 0.00217757 0)
(0.999975 0.00192944 0)
(1.00034 0.00194264 0)
(1.00018 0.00248541 0)
(1.0002 0.00296995 0)
(1.00067 0.00306342 0)
(1.00114 0.0030298 0)
(1.00125 0.00307546 0)
(1.001 0.00331163 0)
(1.00078 0.00346089 0)
(1.00005 -0.000184632 0)
(0.999767 -0.000948699 0)
(0.998813 -7.67826e-05 0)
(0.999074 0.00020822 0)
(0.999755 -0.000414648 0)
(0.999304 0.000198363 0)
(0.999005 0.00101637 0)
(0.999586 0.000739246 0)
(0.999756 0.000682796 0)
(0.999253 0.00152582 0)
(0.999217 0.00218231 0)
(0.999874 0.00208329 0)
(1.00037 0.00198172 0)
(1.00034 0.00233166 0)
(1.0003 0.00280444 0)
(1.00066 0.00296123 0)
(1.0011 0.00296974 0)
(1.00128 0.00298634 0)
(1.00109 0.00313504 0)
(1.00079 0.00332929 0)
(1.00004 -0.000135856 0)
(0.999837 -0.000842412 0)
(0.998972 -0.000168814 0)
(0.999086 0.000260084 0)
(0.999764 -0.000282934 0)
(0.999462 8.93007e-05 0)
(0.999066 0.00093335 0)
(0.999512 0.000861808 0)
(0.999816 0.000721562 0)
(0.999451 0.00136691 0)
(0.999291 0.0020918 0)
(0.999792 0.00218777 0)
(1.00035 0.00205847 0)
(1.00046 0.00223338 0)
(1.00042 0.00263317 0)
(1.00067 0.0028327 0)
(1.00108 0.00286178 0)
(1.00128 0.00289557 0)
(1.00117 0.00298564 0)
(1.00084 0.0031722 0)
(1.00002 -9.96762e-05 0)
(0.99989 -0.000730197 0)
(0.999127 -0.000239246 0)
(0.999117 0.000279707 0)
(0.999758 -0.000153037 0)
(0.9996 2.64895e-05 0)
(0.99916 0.000825431 0)
(0.999458 0.000953903 0)
(0.99984 0.000793557 0)
(0.999629 0.00124306 0)
(0.999412 0.00194697 0)
(0.999752 0.00221287 0)
(1.00029 0.00213589 0)
(1.00052 0.00219404 0)
(1.00052 0.00247872 0)
(1.0007 0.00268953 0)
(1.00106 0.00273162 0)
(1.00129 0.00277038 0)
(1.00123 0.00285847 0)
(1.00092 0.00300849 0)
(1.00001 -7.4112e-05 0)
(0.99993 -0.000616893 0)
(0.999273 -0.000288027 0)
(0.999167 0.000275755 0)
(0.999743 -3.05818e-05 0)
(0.999713 1.36755e-06 0)
(0.999279 0.000709287 0)
(0.999435 0.00100066 0)
(0.999836 0.000886284 0)
(0.999774 0.00115719 0)
(0.999562 0.00179181 0)
(0.999763 0.00215712 0)
(1.00024 0.00218353 0)
(1.00053 0.00218722 0)
(1.00059 0.00236662 0)
(1.00073 0.0025463 0)
(1.00104 0.00260022 0)
(1.00129 0.00262165 0)
(1.00128 0.00271884 0)
(1.00101 0.00285884 0)
(1 -5.66624e-05 0)
(0.999957 -0.000508213 0)
(0.999407 -0.000312409 0)
(0.999234 0.000249746 0)
(0.999724 7.99418e-05 0)
(0.9998 1.20483e-05 0)
(0.999411 0.00060256 0)
(0.999448 0.00100028 0)
(0.999819 0.000977553 0)
(0.999882 0.00111892 0)
(0.999717 0.00163786 0)
(0.999818 0.00204944 0)
(1.00021 0.00217339 0)
(1.00052 0.00219053 0)
(1.00063 0.002291 0)
(1.00075 0.00242525 0)
(1.00102 0.00247466 0)
(1.0013 0.00247668 0)
(1.00135 0.00255244 0)
(1.00111 0.00271197 0)
(0.999998 -4.52974e-05 0)
(0.999974 -0.000407479 0)
(0.999526 -0.000314373 0)
(0.999314 0.000210689 0)
(0.999711 0.000171724 0)
(0.999862 5.23821e-05 0)
(0.999544 0.000513424 0)
(0.999496 0.000961058 0)
(0.999803 0.00104294 0)
(0.999949 0.00112857 0)
(0.99986 0.00150195 0)
(0.999904 0.00191781 0)
(1.00021 0.00210676 0)
(1.0005 0.00217175 0)
(1.00063 0.00223978 0)