/*--------------------------------*- C++ -*----------------------------------*\
| =========                 |                                                 |
| \\      /  F ield         | OpenFOAM: The Open Source CFD Toolbox           |
|  \\    /   O peration     | Version:  2106                                  |
|   \\  /    A nd           | Website:  www.openfoam.com                      |
|    \\/     M anipulation  |                                                 |
\*---------------------------------------------------------------------------*/
FoamFile
{
    version     2.0;
    format      ascii;
    arch        "LSB;label=32;scalar=64";
    class       volVectorField;
    location    "0.375";
    object      U;
}
// * * * * * * * * * * * * * * * * * * * * * * * * * * * * * * * * * * * * * //

dimensions      [0 1 -1 0 0 0 0];

internalField   nonuniform List<vector> 
9600
(
(0.805314 -0.00804653 0)
(1.15629 0.0101874 0)
(0.928616 -0.00663473 0)
(1.18572 0.0127868 0)
(0.858423 -0.00304361 0)
(1.15047 -0.000553162 0)
(0.890273 -0.00610002 0)
(1.15895 0.00147964 0)
(0.909874 0.00192143 0)
(1.12814 0.00244354 0)
(0.888214 0.00170748 0)
(1.13497 -0.00468985 0)
(0.864107 -0.00147417 0)
(1.13571 0.00290605 0)
(0.887403 -0.00197316 0)
(1.12627 0.000689632 0)
(0.895012 -0.00177471 0)
(1.13789 0.00192822 0)
(0.887438 -0.00112048 0)
(1.14052 7.5546e-05 0)
(0.818933 -0.00787931 0)
(1.15029 0.00957588 0)
(0.942354 -0.00701692 0)
(1.17891 0.0133128 0)
(0.887362 -0.0028446 0)
(1.1392 -0.000689244 0)
(0.915078 -0.00643136 0)
(1.14533 0.0014064 0)
(0.935886 0.00208565 0)
(1.11012 0.00300206 0)
(0.921724 0.00131311 0)
(1.10558 -0.00402041 0)
(0.906017 -0.00180383 0)
(1.09422 0.00264283 0)
(0.943422 -0.00186656 0)
(1.07118 0.000522159 0)
(0.967883 -0.00201404 0)
(1.05835 0.00171246 0)
(0.991312 -0.000310921 0)
(1.02388 0.000475221 0)
(0.842543 -0.0077633 0)
(1.13563 0.00873537 0)
(0.960847 -0.00735716 0)
(1.16384 0.0139632 0)
(0.928052 -0.00259206 0)
(1.11611 -0.000791359 0)
(0.949966 -0.00665822 0)
(1.11843 0.00134163 0)
(0.97487 0.002428 0)
(1.08218 0.00333352 0)
(0.96641 0.00133289 0)
(1.06618 -0.00366508 0)
(0.9571 -0.00165276 0)
(1.04892 0.00201653 0)
(0.991241 -0.00142445 0)
(1.03015 -0.000113865 0)
(1.00579 -0.00150667 0)
(1.02404 0.000939808 0)
(1.01484 0.000896777 0)
(1.00916 0.000398763 0)
(0.873283 -0.00770352 0)
(1.11255 0.00797569 0)
(0.977566 -0.00763212 0)
(1.14108 0.0143011 0)
(0.96683 -0.00221248 0)
(1.08612 -0.000873335 0)
(0.980205 -0.00675389 0)
(1.08564 0.0011487 0)
(1.00738 0.00279022 0)
(1.05612 0.00350406 0)
(0.999057 0.00159195 0)
(1.03455 -0.00349657 0)
(0.988885 -0.00139108 0)
(1.02277 0.0014685 0)
(1.0096 -0.00113615 0)
(1.01565 -0.000364939 0)
(1.01249 -0.00135971 0)
(1.01651 0.000700918 0)
(1.01392 0.00136369 0)
(1.00923 0.0011327 0)
(0.906774 -0.0076624 0)
(1.08427 0.00732112 0)
(0.989258 -0.00790001 0)
(1.11316 0.0143515 0)
(0.995207 -0.00170868 0)
(1.05717 -0.00091888 0)
(0.998107 -0.0067835 0)
(1.05553 0.000850013 0)
(1.02358 0.00307518 0)
(1.03753 0.00365545 0)
(1.01349 0.00195349 0)
(1.01571 -0.00330489 0)
(1.00019 -0.001222 0)
(1.01105 0.00113072 0)
(1.01085 -0.000999229 0)
(1.01005 -0.000501774 0)
(1.01023 -0.0012264 0)
(1.01149 0.000516497 0)
(1.01041 0.0018284 0)
(1.00581 0.00170764 0)
(0.938032 -0.00762421 0)
(1.05565 0.00677924 0)
(0.995433 -0.00815585 0)
(1.08371 0.0142446 0)
(1.01082 -0.00117105 0)
(1.03482 -0.000900377 0)
(1.0044 -0.00677593 0)
(1.03246 0.000547881 0)
(1.02524 0.00324708 0)
(1.02516 0.00380562 0)
(1.01543 0.00233393 0)
(1.0063 -0.00307643 0)
(1.00085 -0.00113999 0)
(1.00474 0.000921176 0)
(1.00671 -0.000927071 0)
(1.00502 -0.000621728 0)
(1.00594 -0.00108286 0)
(1.00585 0.000382132 0)
(1.00549 0.00219256 0)
(1.00138 0.0022976 0)
(0.963221 -0.00758116 0)
(1.03124 0.0063837 0)
(0.997439 -0.0083732 0)
(1.05626 0.0140502 0)
(1.01615 -0.000694796 0)
(1.02037 -0.000815786 0)
(1.00407 -0.00672826 0)
(1.01654 0.000295198 0)
(1.01909 0.00331394 0)
(1.01628 0.00392217 0)
(1.0121 0.0026729 0)
(1.00226 -0.00285275 0)
(0.998553 -0.00106586 0)
(1.00048 0.000766661 0)
(1.00229 -0.000859017 0)
(1.00045 -0.00073473 0)
(1.0014 -0.000952872 0)
(1.00089 0.000321956 0)
(1.0004 0.00245022 0)
(0.997322 0.00290026 0)
(0.980777 -0.00752628 0)
(1.01361 0.00613274 0)
(0.997243 -0.00853485 0)
(1.03344 0.0138096 0)
(1.01551 -0.00033113 0)
(1.01222 -0.000697233 0)
(1.00176 -0.00663633 0)
(1.00629 0.000104375 0)
(1.01109 0.00331126 0)
(1.00962 0.00397734 0)
(1.00797 0.00292916 0)
(1.00101 -0.00265828 0)
(0.996699 -0.000962137 0)
(0.997932 0.000643372 0)
(0.999288 -0.000783104 0)
(0.997325 -0.000823562 0)
(0.997841 -0.000834331 0)
(0.997306 0.00033458 0)
(0.996502 0.0026283 0)
(0.994206 0.00347887 0)
(0.991313 -0.00745801 0)
(1.00289 0.00598763 0)
(0.996416 -0.00862851 0)
(1.01653 0.0135544 0)
(1.01266 -9.1087e-05 0)
(1.00806 -0.000584043 0)
(0.99987 -0.00649984 0)
(1.00017 -2.59327e-05 0)
(1.00448 0.00327488 0)
(1.00492 0.00396193 0)
(1.00484 0.00309328 0)
(1.00101 -0.00250527 0)
(0.99606 -0.000829551 0)
(0.996951 0.000546801 0)
(0.997945 -0.000704587 0)
(0.995787 -0.000869492 0)
(0.995761 -0.000728718 0)
(0.995153 0.000415281 0)
(0.994127 0.00274793 0)
(0.992251 0.00401867 0)
(0.99669 -0.00737924 0)
(0.997561 0.00590383 0)
(0.995753 -0.00865038 0)
(1.00549 0.0132969 0)
(1.00981 4.27846e-05 0)
(1.00608 -0.000498466 0)
(0.998918 -0.00632416 0)
(0.996918 -0.000108279 0)
(1.00027 0.00322728 0)
(1.00202 0.00388528 0)
(1.00303 0.00318149 0)
(1.00137 -0.00239138 0)
(0.996293 -0.000682793 0)
(0.997021 0.000473898 0)
(0.99777 -0.000631327 0)
(0.995397 -0.000860068 0)
(0.994921 -0.000633566 0)
(0.994151 0.000553643 0)
(0.992961 0.00282725 0)
(0.991292 0.00451318 0)
(0.998957 -0.00729355 0)
(0.995555 0.00584675 0)
(0.995437 -0.00860913 0)
(0.999265 0.0130354 0)
(1.0078 0.00010499 0)
(1.00518 -0.000444984 0)
(0.99862 -0.00611915 0)
(0.995505 -0.000160734 0)
(0.99812 0.00318035 0)
(1.00052 0.00376458 0)
(1.00221 0.00322102 0)
(1.00168 -0.00230603 0)
(0.996852 -0.000537746 0)
(0.997534 0.000418053 0)
(0.998123 -0.000566113 0)
(0.995584 -0.0007899 0)
(0.994813 -0.000549034 0)
(0.993875 0.000747879 0)
(0.992549 0.00290095 0)
(0.991001 0.00495592 0)
(0.999693 -0.00720329 0)
(0.995153 0.0057948 0)
(0.995382 -0.00852016 0)
(0.996294 0.012766 0)
(1.0066 0.000130639 0)
(1.00477 -0.000419256 0)
(0.99861 -0.00589342 0)
(0.995099 -0.000200779 0)
(0.997304 0.0031397 0)
(0.999897 0.00361671 0)
(1.00191 0.00323533 0)
(1.00184 -0.00223528 0)
(0.997368 -0.000409154 0)
(0.99806 0.000381974 0)
(0.998547 -0.000514312 0)
(0.99592 -0.000670827 0)
(0.995003 -0.000470706 0)
(0.993955 0.000986992 0)
(0.992533 0.00299372 0)
(0.991087 0.00532605 0)
(0.999833 -0.00710948 0)
(0.9953 0.00573743 0)
(0.995467 -0.00839802 0)
(0.995157 0.0124852 0)
(1.00594 0.000145138 0)
(1.00457 -0.000415243 0)
(0.99867 -0.00565199 0)
(0.995144 -0.000240906 0)
(0.997143 0.00310705 0)
(0.999709 0.00345359 0)
(1.0018 0.00323951 0)
(1.00186 -0.0021672 0)
(0.997714 -0.000297931 0)
(0.998419 0.000369439 0)
(0.99884 -0.000485675 0)
(0.996192 -0.000515636 0)
(0.99524 -0.000399355 0)
(0.994159 0.00124245 0)
(0.992689 0.00311799 0)
(0.991359 0.00560509 0)
(0.999811 -0.00701208 0)
(0.99552 0.00567079 0)
(0.995618 -0.00825279 0)
(0.994866 0.0121905 0)
(1.00555 0.000163139 0)
(1.00442 -0.000428531 0)
(0.998719 -0.00539702 0)
(0.995336 -0.00028797 0)
(0.997222 0.00308275 0)
(0.999689 0.00328191 0)
(1.00172 0.0032404 0)
(1.0018 -0.00209413 0)
(0.997909 -0.000205155 0)
(0.998599 0.000379548 0)
(0.998981 -0.000483195 0)
(0.996351 -0.000331127 0)
(0.995431 -0.000326537 0)
(0.994379 0.0014894 0)
(0.992905 0.00328988 0)
(0.991709 0.00579841 0)
(0.999778 -0.0069105 0)
(0.995673 0.00559391 0)
(0.995791 -0.00809004 0)
(0.994889 0.0118802 0)
(1.00528 0.000191683 0)
(1.0043 -0.000456938 0)
(0.998744 -0.00512899 0)
(0.995548 -0.000344418 0)
(0.997348 0.00306572 0)
(0.999714 0.00310716 0)
(1.00161 0.00323638 0)
(1.0017 -0.00200989 0)
(0.998015 -0.000138641 0)
(0.998657 0.000418402 0)
(0.999018 -0.00049919 0)
(0.99642 -0.000129168 0)
(0.995564 -0.000240715 0)
(0.994586 0.00170392 0)
(0.993132 0.00351327 0)
(0.992086 0.00592975 0)
(0.999765 -0.00680411 0)
(0.995757 0.00550669 0)
(0.995966 -0.00791225 0)
(0.995001 0.0115532 0)
(1.00504 0.000233815 0)
(1.00418 -0.000499518 0)
(0.99875 -0.00484827 0)
(0.995746 -0.000410278 0)
(0.997462 0.0030548 0)
(0.999743 0.00293081 0)
(1.00149 0.00322861 0)
(1.0016 -0.00191048 0)
(0.998087 -9.65635e-05 0)
(0.998654 0.000486475 0)
(0.999003 -0.000531001 0)
(0.996441 8.53322e-05 0)
(0.995658 -0.000126008 0)
(0.994782 0.00186314 0)
(0.993358 0.00377048 0)
(0.992462 0.00602303 0)
(0.99977 -0.00669246 0)
(0.995799 0.00540935 0)
(0.996132 -0.00772034 0)
(0.995132 0.011209 0)
(1.00482 0.000290313 0)
(1.00406 -0.000555635 0)
(0.998746 -0.00455459 0)
(0.995926 -0.000485059 0)
(0.997557 0.00304806 0)
(0.999766 0.00275503 0)
(1.00136 0.00321315 0)
(1.0015 -0.00179053 0)
(0.998154 -7.89191e-05 0)
(0.998627 0.000580155 0)
(0.998972 -0.000571152 0)
(0.996446 0.000298559 0)
(0.99573 2.64402e-05 0)
(0.994977 0.00197255 0)
(0.993586 0.00403894 0)
(0.992826 0.00609985 0)
(0.999787 -0.00657531 0)
(0.995824 0.00530204 0)
(0.996286 -0.00751454 0)
(0.995263 0.010847 0)
(1.0046 0.000361129 0)
(1.00394 -0.000624789 0)
(0.998741 -0.00424933 0)
(0.996097 -0.000565243 0)
(0.997639 0.00304265 0)
(0.999782 0.00258396 0)
(1.00124 0.00318369 0)
(1.00141 -0.00164784 0)
(0.998228 -8.60688e-05 0)
(0.998596 0.000696695 0)
(0.998943 -0.000607181 0)
(0.996456 0.000489894 0)
(0.995795 0.000223479 0)
(0.995182 0.00205205 0)
(0.99382 0.00429396 0)
(0.993175 0.00618305 0)
(0.99981 -0.00645251 0)
(0.995843 0.00518487 0)
(0.996432 -0.00729506 0)
(0.995395 0.0104671 0)
(1.00439 0.000446346 0)
(1.00384 -0.000706504 0)
(0.998737 -0.00393401 0)
(0.996263 -0.000650545 0)
(0.997715 0.00303793 0)
(0.99979 0.00241979 0)
(1.00111 0.00313744 0)
(1.00131 -0.00148131 0)
(0.998308 -0.000111213 0)
(0.998566 0.000825761 0)
(0.998923 -0.000627227 0)
(0.996482 0.000649285 0)
(0.995862 0.000476055 0)
(0.9954 0.00211656 0)
(0.994068 0.0045071 0)
(0.993508 0.00628545 0)
(0.999837 -0.00632416 0)
(0.995863 0.00505818 0)
(0.996575 -0.0070622 0)
(0.995527 0.0100699 0)
(1.00418 0.000542833 0)
(1.00374 -0.000799134 0)
(0.998735 -0.00360993 0)
(0.996429 -0.000740136 0)
(0.997788 0.00303052 0)
(0.999791 0.00226707 0)
(1.00099 0.00307027 0)
(1.0012 -0.0012896 0)
(0.998394 -0.000152676 0)
(0.998539 0.000961078 0)
(0.99891 -0.000616459 0)
(0.99653 0.000767512 0)
(0.995934 0.000762494 0)
(0.995628 0.00217778 0)
(0.994333 0.00466465 0)
(0.993826 0.00640504 0)
(0.999865 -0.00619019 0)
(0.995886 0.00492179 0)
(0.996716 -0.0068161 0)
(0.995661 0.00965599 0)
(1.00397 0.000653422 0)
(1.00363 -0.000901334 0)
(0.998735 -0.00327999 0)
(0.996594 -0.000827333 0)
(0.997861 0.00301476 0)
(0.999786 0.00213072 0)
(1.00087 0.0029806 0)
(1.00109 -0.00107836 0)
(0.998482 -0.000203903 0)
(0.998516 0.00109092 0)
(0.9989 -0.00057101 0)
(0.996601 0.00085076 0)
(0.996012 0.00106523 0)
(0.995862 0.00224915 0)
(0.994618 0.00476555 0)
(0.994132 0.00652562 0)
(0.999895 -0.00605065 0)
(0.995913 0.00477621 0)
(0.996858 -0.00655803 0)
(0.995798 0.00922654 0)
(1.00375 0.000777206 0)
(1.00354 -0.00101155 0)
(0.998735 -0.00294691 0)
(0.996758 -0.000909606 0)
(0.997935 0.00298808 0)
(0.999777 0.00201402 0)
(1.00075 0.00286902 0)
(1.00097 -0.000853494 0)
(0.998573 -0.000255499 0)
(0.998499 0.00120445 0)
(0.998893 -0.000488876 0)
(0.996693 0.000913929 0)
(0.996098 0.00137261 0)
(0.996096 0.00234287 0)
(0.994921 0.00481307 0)
(0.994428 0.0066335 0)
(0.999924 -0.00590602 0)
(0.995944 0.00462236 0)
(0.997001 -0.00628887 0)
(0.995939 0.00878366 0)
(1.00353 0.000907742 0)
(1.00344 -0.00112722 0)
(0.998734 -0.00261415 0)
(0.99692 -0.000984429 0)
(0.998012 0.00294744 0)
(0.999764 0.00192015 0)
(1.00064 0.00273742 0)
(1.00085 -0.000618353 0)
(0.998663 -0.000299015 0)
(0.998489 0.00130189 0)
(0.998884 -0.000365453 0)
(0.996804 0.000958669 0)
(0.996193 0.00166761 0)
(0.996325 0.00246277 0)
(0.99524 0.00481353 0)
(0.994718 0.00671506 0)
(0.999954 -0.00575617 0)
(0.995978 0.00446023 0)
(0.997143 -0.0060094 0)
(0.996085 0.00832906 0)
(1.00331 0.00104569 0)
(1.00335 -0.00124647 0)
(0.998734 -0.00228584 0)
(0.997079 -0.00104645 0)
(0.998092 0.00288844 0)
(0.999747 0.00185122 0)
(1.00053 0.0025871 0)
(1.00073 -0.00037939 0)
(0.998752 -0.000324786 0)
(0.998487 0.00137309 0)
(0.998873 -0.000200522 0)
(0.996931 0.000993272 0)
(0.996298 0.00193981 0)
(0.996543 0.00261472 0)
(0.995569 0.00478774 0)
(0.995008 0.00675987 0)
(0.999985 -0.00560136 0)
(0.996017 0.00429072 0)
(0.997283 -0.00572153 0)
(0.996236 0.00786448 0)
(1.00308 0.00118988 0)
(1.00325 -0.00136717 0)
(0.998734 -0.00196442 0)
(0.997233 -0.00109281 0)
(0.998175 0.00280863 0)
(0.999725 0.00180732 0)
(1.00043 0.00242075 0)
(1.0006 -0.000143961 0)
(0.998837 -0.000331764 0)
(0.998496 0.0014145 0)
(0.99886 -1.97326e-06 0)
(0.99707 0.00103015 0)
(0.996418 0.0021739 0)
(0.996751 0.00279077 0)
(0.995902 0.004761 0)
(0.995298 0.00676815 0)
(1.00002 -0.00544212 0)
(0.99606 0.00411474 0)
(0.997422 -0.00542691 0)
(0.996392 0.0073934 0)
(1.00286 0.00133751 0)
(1.00317 -0.0014864 0)
(0.998736 -0.00165332 0)
(0.997381 -0.00111943 0)
(0.998264 0.00270541 0)
(0.9997 0.0017882 0)
(1.00034 0.00224429 0)
(1.00048 8.10028e-05 0)
(0.998917 -0.00031279 0)
(0.998517 0.0014339 0)
(0.998847 0.00021899 0)
(0.997218 0.00107873 0)
(0.996553 0.00236536 0)
(0.996952 0.00296718 0)
(0.996236 0.00474006 0)
(0.99559 0.0067515 0)
(1.00005 -0.00527826 0)
(0.996108 0.00393307 0)
(0.997559 -0.00512792 0)
(0.996555 0.00691747 0)
(1.00263 0.00148753 0)
(1.00308 -0.00160155 0)
(0.99874 -0.00135871 0)
(0.997521 -0.00112237 0)
(0.998357 0.0025792 0)
(0.999671 0.00179451 0)
(1.00025 0.00206317 0)
(1.00036 0.000292003 0)
(0.998988 -0.000258687 0)
(0.998552 0.00142894 0)
(0.998836 0.000458417 0)
(0.99737 0.0011499 0)
(0.996703 0.00252495 0)
(0.997146 0.00313574 0)
(0.99657 0.00471198 0)
(0.995885 0.00671485 0)
(1.00008 -0.00511065 0)
(0.99616 0.00374793 0)
(0.997694 -0.00482644 0)
(0.996723 0.00643755 0)
(1.0024 0.00163897 0)
(1.00299 -0.00171154 0)
(0.998747 -0.00108078 0)
(0.997651 -0.00110086 0)
(0.998456 0.00242731 0)
(0.999638 0.00182484 0)
(1.00017 0.00188314 0)
(1.00024 0.000483274 0)
(0.99905 -0.000172674 0)
(0.998598 0.00140179 0)
(0.99883 0.000703739 0)
(0.997523 0.0012466 0)
(0.996867 0.00265027 0)
(0.997335 0.00329915 0)
(0.9969 0.00467451 0)
(0.996188 0.00664477 0)
(1.00011 -0.00493999 0)
(0.996217 0.00356027 0)
(0.997825 -0.0045236 0)
(0.996897 0.00595605 0)
(1.00216 0.00178865 0)
(1.00291 -0.00181262 0)
(0.998759 -0.000824614 0)
(0.997771 -0.0010503 0)
(0.99856 0.00224902 0)
(0.999604 0.00187501 0)
(1.0001 0.00170978 0)
(1.00013 0.000650229 0)
(0.999101 -4.86845e-05 0)
(0.998657 0.00136441 0)
(0.998832 0.000935548 0)
(0.997674 0.00137564 0)
(0.997043 0.00274744 0)
(0.997519 0.0034495 0)
(0.997223 0.00464428 0)
(0.996505 0.00653099 0)
(1.00014 -0.00476557 0)
(0.996278 0.00336971 0)
(0.997951 -0.00422129 0)
(0.997077 0.00547417 0)
(1.00193 0.00193575 0)
(1.00282 -0.00190445 0)
(0.998776 -0.000595492 0)
(0.997878 -0.000968021 0)
(0.998669 0.00204639 0)
(0.99957 0.00193865 0)
(1.00003 0.00155189 0)
(1.00004 0.000787767 0)
(0.999142 0.000118842 0)
(0.998723 0.00133013 0)
(0.998848 0.00113817 0)
(0.997822 0.00154039 0)
(0.997227 0.00283834 0)
(0.997701 0.0035738 0)
(0.997534 0.00462842 0)
(0.996834 0.00638638 0)
(1.00017 -0.00458807 0)
(0.996344 0.00317764 0)
(0.998072 -0.00392059 0)
(0.997262 0.0049922 0)
(1.00169 0.00208044 0)
(1.00273 -0.00198561 0)
(0.998799 -0.00039437 0)
(0.997971 -0.000856215 0)
(0.998783 0.00182306 0)
(0.999536 0.00200887 0)
(0.999957 0.00142087 0)
(0.999954 0.000881436 0)
(0.999173 0.000318577 0)
(0.998793 0.00131494 0)
(0.998878 0.00130091 0)
(0.997968 0.00171639 0)
(0.997414 0.00293397 0)
(0.997882 0.00366603 0)
(0.997832 0.0046131 0)
(0.99717 0.00623576 0)
(1.00019 -0.00440874 0)
(0.996414 0.00298592 0)
(0.998187 -0.00362108 0)
(0.997453 0.00451244 0)
(1.00146 0.00222239 0)
(1.00264 -0.00205275 0)
(0.998829 -0.000223102 0)
(0.998049 -0.000713462 0)
(0.9989 0.0015838 0)
(0.999506 0.00208025 0)
(0.999884 0.00133321 0)
(0.999889 0.000924636 0)
(0.999201 0.000534149 0)
(0.998861 0.00133152 0)
(0.998923 0.00142502 0)
(0.998118 0.00187799 0)
(0.997601 0.00303763 0)
(0.998059 0.00374165 0)
(0.998119 0.00458214 0)
(0.99751 0.00608439 0)
(1.00022 -0.00422712 0)
(0.996489 0.00279471 0)
(0.998295 -0.00332293 0)
(0.997648 0.00403465 0)
(1.00123 0.00236047 0)
(1.00254 -0.00210416 0)
(0.998867 -8.91992e-05 0)
(0.998109 -0.000532916 0)
(0.999019 0.00132729 0)
(0.999482 0.00213355 0)
(0.999806 0.00130158 0)
(0.999839 0.000927081 0)
(0.999229 0.000749165 0)
(0.998924 0.00139279 0)
(0.998979 0.00152712 0)
(0.998274 0.00201563 0)
(0.997789 0.00314626 0)
(0.998228 0.00382599 0)
(0.998394 0.0045358 0)
(0.997855 0.00591172 0)
(1.00025 -0.00404308 0)
(0.996569 0.00260301 0)
(0.998393 -0.00302583 0)
(0.997847 0.00355632 0)
(1.001 0.00249346 0)
(1.00243 -0.00213048 0)
(0.998917 6.12055e-06 0)
(0.998152 -0.000321639 0)
(0.999136 0.00107184 0)
(0.999471 0.00215518 0)
(0.999721 0.0013311 0)
(0.999802 0.000905389 0)
(0.999265 0.000942028 0)
(0.998981 0.00150331 0)
(0.99904 0.00162478 0)
(0.998437 0.0021226 0)
(0.997982 0.00324039 0)
(0.998386 0.00392855 0)
(0.998647 0.00449661 0)
(0.998206 0.00570117 0)
(1.00027 -0.00385783 0)
(0.996653 0.00241111 0)
(0.998483 -0.00272901 0)
(0.99805 0.00307917 0)
(1.00078 0.00261655 0)
(1.00232 -0.00212763 0)
(0.998979 5.9181e-05 0)
(0.998177 -7.9782e-05 0)
(0.999246 0.000835834 0)
(0.999475 0.00213607 0)
(0.999629 0.00141929 0)
(0.999772 0.000879195 0)
(0.999314 0.00108907 0)
(0.999033 0.00165088 0)
(0.999099 0.00173489 0)
(0.998606 0.00219984 0)
(0.998186 0.00329693 0)
(0.998537 0.00403369 0)
(0.998867 0.00449791 0)
(0.998554 0.00546617 0)
(1.00029 -0.00367046 0)
(0.996742 0.00221687 0)
(0.998561 -0.00243207 0)
(0.998255 0.00260471 0)
(1.00056 0.00272281 0)
(1.0022 -0.00209046 0)
(0.999055 6.11202e-05 0)
(0.998188 0.000189458 0)
(0.999345 0.000633996 0)
(0.999499 0.00206019 0)
(0.999532 0.0015527 0)
(0.999742 0.000873249 0)
(0.999379 0.00118177 0)
(0.999087 0.00181097 0)
(0.999151 0.00186872 0)
(0.998773 0.00226361 0)
(0.998403 0.00331701 0)
(0.998694 0.00410686 0)
(0.99905 0.00454892 0)
(0.998875 0.0052634 0)
(1.00031 -0.0034811 0)
(0.996836 0.00201982 0)
(0.998627 -0.00213425 0)
(0.998462 0.00213267 0)
(1.00036 0.00280951 0)
(1.00207 -0.00201208 0)
(0.999147 1.41618e-05 0)
(0.998188 0.000463705 0)
(0.999426 0.000477469 0)
(0.999545 0.00192596 0)
(0.999435 0.00171391 0)
(0.999704 0.000910178 0)
(0.99946 0.0012227 0)
(0.999149 0.00196022 0)
(0.999193 0.00202897 0)
(0.998931 0.00232673 0)
(0.998628 0.00331411 0)
(0.998866 0.00413073 0)
(0.99921 0.00460911 0)
(0.999148 0.0051445 0)
(1.00033 -0.0032896 0)
(0.996935 0.00181742 0)
(0.99868 -0.00183316 0)
(0.998669 0.00167246 0)
(1.00016 0.00286662 0)
(1.00192 -0.00188348 0)
(0.999253 -7.46256e-05 0)
(0.998182 0.000732695 0)
(0.999482 0.0003829 0)
(0.999613 0.00173961 0)
(0.999348 0.00187463 0)
(0.99965 0.00100444 0)
(0.999551 0.00122921 0)
(0.999228 0.00207742 0)
(0.999228 0.00221691 0)
(0.999074 0.00240075 0)
(0.998855 0.0032888 0)
(0.999052 0.00411959 0)
(0.999364 0.00463169 0)
(0.999371 0.00508936 0)
(1.00035 -0.00309673 0)
(0.99704 0.00161169 0)
(0.99872 -0.00153205 0)
(0.998875 0.00123257 0)
(0.999981 0.00288839 0)
(1.00175 -0.00170155 0)
(0.99937 -0.000194439 0)
(0.998177 0.0009808 0)
(0.99951 0.000362872 0)
(0.999701 0.0015177 0)
(0.99928 0.00200645 0)
(0.999579 0.00115637 0)
(0.999645 0.00122757 0)
(0.99933 0.00214759 0)
(0.999261 0.00241668 0)
(0.999194 0.00250413 0)
(0.999078 0.00324373 0)
(0.999251 0.00408414 0)
(0.999521 0.00461816 0)
(0.999562 0.00503811 0)
(1.00036 -0.00290255 0)
(0.997151 0.00140217 0)
(0.998747 -0.00123074 0)
(0.999076 0.000820336 0)
(0.999822 0.00286159 0)
(1.00156 -0.00147291 0)
(0.999494 -0.000334184 0)
(0.998178 0.00118809 0)
(0.999506 0.000413881 0)
(0.999803 0.00128574 0)
(0.999242 0.0020966 0)
(0.999491 0.00135908 0)
(0.999729 0.00123884 0)
(0.999458 0.00216533 0)
(0.999302 0.0025995 0)
(0.999285 0.00264193 0)
(0.999286 0.00319545 0)
(0.999461 0.00401269 0)
(0.99968 0.00459171 0)
(0.99973 0.00497591 0)
(1.00037 -0.00270543 0)
(0.997269 0.00118476 0)
(0.998761 -0.000931818 0)
(0.99927 0.000443608 0)
(0.999686 0.00277918 0)
(1.00136 -0.00119964 0)
(0.999621 -0.000476814 0)
(0.998193 0.00134084 0)
(0.99947 0.000530897 0)
(0.999909 0.00106609 0)
(0.999239 0.00212962 0)
(0.999393 0.00159581 0)
(0.999793 0.00128226 0)
(0.999609 0.00213452 0)
(0.999363 0.00274353 0)
(0.99935 0.00281333 0)
(0.999469 0.00317405 0)
(0.999683 0.00389183 0)
(0.99985 0.00453531 0)
(0.999877 0.00492394 0)
(1.00037 -0.00250865 0)
(0.997395 0.000967277 0)
(0.998763 -0.000645135 0)
(0.999453 0.000111324 0)
(0.999578 0.00263889 0)
(1.00114 -0.000896827 0)
(0.999745 -0.000604347 0)
(0.998227 0.0014317 0)
(0.999406 0.00069888 0)
(1.00001 0.00088012 0)
(0.999278 0.00209606 0)
(0.999294 0.00184073 0)
(0.999827 0.00137381 0)
(0.999774 0.002071 0)
(0.999456 0.00282905 0)
(0.9994 0.00299739 0)
(0.999608 0.00320694 0)
(0.999901 0.00375043 0)
(1.00005 0.00441269 0)
(1.00001 0.00487001 0)
(1.00037 -0.00231162 0)
(0.997528 0.000749365 0)
(0.998756 -0.000375227 0)
(0.999621 -0.000168873 0)
(0.9995 0.00244024 0)
(1.00091 -0.000583512 0)
(0.999859 -0.000700061 0)
(0.998284 0.00146341 0)
(0.999318 0.000901773 0)
(1.00009 0.000745301 0)
(0.999357 0.00200546 0)
(0.999207 0.00206964 0)
(0.999826 0.00151642 0)
(0.999939 0.00200147 0)
(0.999586 0.00285106 0)
(0.999451 0.00315552 0)
(0.999702 0.00328998 0)
(1.00009 0.00364308 0)
(1.00026 0.0042279 0)
(1.00016 0.00476675 0)
(1.00037 -0.00211562 0)
(0.997668 0.000535917 0)
(0.998741 -0.000130541 0)
(0.999769 -0.000394037 0)
(0.999453 0.00219681 0)
(1.00068 -0.000274013 0)
(0.999957 -0.00075194 0)
(0.998367 0.0014446 0)
(0.999214 0.00112281 0)
(1.00015 0.000667799 0)
(0.999473 0.0018683 0)
(0.999145 0.00226537 0)
(0.999789 0.00170781 0)
(1.00009 0.00194955 0)
(0.99975 0.00281765 0)
(0.999518 0.00326846 0)
(0.999762 0.0033949 0)
(1.00023 0.00359633 0)
(1.00048 0.00403322 0)
(1.00035 0.00458433 0)
(1.00036 -0.00192219 0)
(0.997815 0.000328791 0)
(0.998721 9.25841e-05 0)
(0.999895 -0.000555479 0)
(0.999436 0.00191836 0)
(1.00045 1.24863e-05 0)
(1.00004 -0.000760279 0)
(0.998476 0.00137957 0)
(0.999103 0.00134663 0)
(1.00018 0.000657767 0)
(0.99962 0.0016914 0)
(0.99912 0.00240372 0)
(0.999723 0.00194095 0)
(1.00021 0.00193654 0)
(0.999941 0.00273414 0)
(0.999614 0.00333088 0)
(0.999806 0.00349197 0)
(1.00032 0.00359177 0)
(1.00066 0.00388379 0)
(1.00056 0.00435301 0)
(1.00036 -0.00173185 0)
(0.997969 0.0001313 0)
(0.9987 0.000285578 0)
(0.999996 -0.000650944 0)
(0.999447 0.0016174 0)
(1.00023 0.000268892 0)
(1.00009 -0.000720907 0)
(0.99861 0.00127689 0)
(0.998995 0.0015535 0)
(1.00016 0.000720958 0)
(0.999783 0.00150421 0)
(0.999146 0.00246415 0)
(0.99964 0.00218676 0)
(1.00029 0.00197868 0)
(1.00015 0.00262206 0)
(0.999747 0.00333695 0)
(0.999844 0.00357415 0)
(1.00038 0.0036007 0)
(1.0008 0.00378033 0)
(1.00076 0.00413479 0)
(1.00034 -0.00154762 0)
(0.998128 -4.67931e-05 0)
(0.998682 0.000435718 0)
(1.00007 -0.00068608 0)
(0.999482 0.00131078 0)
(1.00002 0.000484994 0)
(1.00012 -0.00063929 0)
(0.998764 0.00115265 0)
(0.998902 0.00173208 0)
(1.0001 0.000845552 0)
(0.999948 0.00133715 0)
(0.999224 0.00244726 0)
(0.999557 0.00241369 0)
(1.00032 0.00207825 0)
(1.00035 0.0025112 0)
(0.99992 0.00327371 0)
(0.999891 0.00363669 0)
(1.0004 0.00362558 0)
(1.00089 0.00369179 0)
(1.00093 0.00395884 0)
(1.00033 -0.00136983 0)
(0.99829 -0.000208618 0)
(0.99867 0.00055202 0)
(1.00012 -0.000673817 0)
(0.999538 0.00101062 0)
(0.99984 0.000655901 0)
(1.00013 -0.000524449 0)
(0.998935 0.00100787 0)
(0.998833 0.00187597 0)
(1.00001 0.00102955 0)
(1.0001 0.00120687 0)
(0.999355 0.00235139 0)
(0.999493 0.00259587 0)
(1.0003 0.00223249 0)
(1.00052 0.00243936 0)
(1.00013 0.00314727 0)
(0.999965 0.00364515 0)
(1.0004 0.00367238 0)
(1.00095 0.00361419 0)
(1.00106 0.00380199 0)
(1.00031 -0.00120064 0)
(0.998455 -0.000350477 0)
(0.998666 0.000626566 0)
(1.00014 -0.000618575 0)
(0.999608 0.000728779 0)
(0.999684 0.000778348 0)
(1.0001 -0.000374545 0)
(0.999118 0.000852262 0)
(0.998801 0.0019609 0)
(0.99988 0.00125925 0)
(1.00021 0.00114385 0)
(0.999528 0.00219424 0)
(0.999471 0.00270554 0)
(1.00024 0.00240927 0)
(1.00065 0.00242506 0)
(1.00035 0.00300098 0)
(1.00009 0.00357464 0)
(1.00038 0.00371314 0)
(1.00095 0.00357685 0)
(1.00117 0.00364071 0)
(1.00029 -0.0010416 0)
(0.998618 -0.000468323 0)
(0.998673 0.000661971 0)
(1.00013 -0.000533138 0)
(0.999686 0.000482141 0)
(0.999559 0.000851384 0)
(1.00006 -0.000205469 0)
(0.999301 0.000709672 0)
(0.998812 0.00198021 0)
(0.999735 0.00149854 0)
(1.00028 0.00115714 0)
(0.999726 0.00202067 0)
(0.999502 0.00273233 0)
(1.00017 0.00257348 0)
(1.00072 0.00246272 0)
(1.00056 0.00288175 0)
(1.00025 0.00344343 0)
(1.00038 0.00369666 0)
(1.00091 0.003582 0)
(1.00123 0.00350153 0)
(1.00026 -0.000893192 0)
(0.998778 -0.00056307 0)
(0.998693 0.000666842 0)
(1.00011 -0.000428811 0)
(0.999769 0.000270018 0)
(0.999465 0.000883699 0)
(0.999993 -2.10845e-05 0)
(0.999477 0.000583919 0)
(0.998868 0.00194032 0)
(0.99959 0.00173082 0)
(1.00029 0.00124194 0)
(0.999926 0.00186398 0)
(0.999586 0.00267878 0)
(1.00011 0.00269903 0)
(1.00074 0.00253034 0)
(1.00074 0.00280284 0)
(1.00043 0.00330333 0)
(1.00043 0.00361536 0)
(1.00084 0.00358493 0)
(1.00122 0.00342496 0)
(1.00024 -0.000757078 0)
(0.998933 -0.000631716 0)
(0.998727 0.000637485 0)
(1.00007 -0.000308363 0)
(0.99985 9.67376e-05 0)
(0.999407 0.000872228 0)
(0.99991 0.000174854 0)
(0.999635 0.000490527 0)
(0.998973 0.0018272 0)
(0.999463 0.00193006 0)
(1.00025 0.0013983 0)
(1.00011 0.00174675 0)
(0.999717 0.00256477 0)
(1.00007 0.00277459 0)
(1.00073 0.002604 0)
(1.00087 0.00274859 0)
(1.00061 0.00317837 0)
(1.00051 0.00350212 0)
(1.00079 0.00354098 0)
(1.00115 0.00339392 0)
(1.00021 -0.000634009 0)
(0.99908 -0.000675572 0)
(0.998776 0.00058587 0)
(1.00002 -0.000187436 0)
(0.999924 -3.16434e-05 0)
(0.999382 0.00082753 0)
(0.99982 0.000361999 0)
(0.999763 0.00044693 0)
(0.999116 0.00166613 0)
(0.999376 0.00205575 0)
(1.00017 0.00159692 0)
(1.00024 0.00169326 0)
(0.999882 0.00241334 0)
(1.00007 0.00278334 0)
(1.0007 0.00267578 0)
(1.00097 0.00271164 0)
(1.00078 0.00306165 0)
(1.0006 0.00338852 0)
(1.00077 0.00345901 0)
(1.00105 0.00336108 0)
(1.00019 -0.000523503 0)
(0.999218 -0.000696948 0)
(0.998837 0.000517371 0)
(0.999959 -7.08238e-05 0)
(0.999988 -0.000117702 0)
(0.99939 0.000757607 0)
(0.99973 0.000534743 0)
(0.999855 0.00044601 0)
(0.999283 0.00149265 0)
(0.99934 0.00210077 0)
(1.00006 0.00178779 0)
(1.00032 0.001722 0)
(1.00005 0.00227004 0)
(1.00012 0.00271136 0)
(1.00066 0.00271583 0)
(1.00103 0.00269 0)
(1.00093 0.00294162 0)
(1.00071 0.00327358 0)
(1.00076 0.00336883 0)
(1.00097 0.00329948 0)
(1.00016 -0.000426466 0)
(0.999345 -0.000695959 0)
(0.998911 0.000436674 0)
(0.999897 3.43051e-05 0)
(1.00004 -0.000162649 0)
(0.999428 0.000667186 0)
(0.999649 0.000677849 0)
(0.999909 0.000498055 0)
(0.999462 0.0013183 0)
(0.999357 0.00206967 0)
(0.999958 0.00194711 0)
(1.00034 0.00180077 0)
(1.0002 0.00217316 0)
(1.0002 0.00260051 0)
(1.00064 0.00269436 0)
(1.00105 0.00267176 0)
(1.00107 0.00282325 0)
(1.00083 0.00313529 0)
(1.00076 0.00328292 0)
(1.00089 0.00322064 0)
(1.00014 -0.000341977 0)
(0.99946 -0.000677209 0)
(0.998996 0.000351649 0)
(0.999837 0.000125419 0)
(1.00007 -0.000171764 0)
(0.999489 0.000568798 0)
(0.999589 0.00078178 0)
(0.999929 0.000590275 0)
(0.999629 0.00117504 0)
(0.999427 0.00195945 0)
(0.999878 0.00206016 0)
(1.00033 0.00189355 0)
(1.00031 0.00212035 0)
(1.00029 0.00249517 0)
(1.00065 0.00262635 0)
(1.00106 0.00262899 0)
(1.00117 0.00272489 0)
(1.00096 0.00297434 0)
(1.00078 0.00318644 0)
(1.00082 0.00315324 0)
(1.00012 -0.000270371 0)
(0.999562 -0.000641602 0)
(0.999089 0.000264874 0)
(0.999783 0.000200616 0)
(1.00009 -0.000149914 0)
(0.999566 0.000469889 0)
(0.999554 0.000846809 0)
(0.999922 0.000696732 0)
(0.999771 0.00108294 0)
(0.999537 0.00181198 0)
(0.999838 0.00209346 0)
(1.00029 0.00199313 0)
(1.00038 0.00210143 0)
(1.00037 0.00240265 0)
(1.00065 0.00254539 0)
(1.00106 0.00254941 0)
(1.00124 0.00262958 0)
(1.00109 0.00281538 0)
(1.00085 0.003051 0)
(1.00076 0.00309557 0)
(1.0001 -0.00021105 0)
(0.99965 -0.000591812 0)
(0.999189 0.000181151 0)
(0.999739 0.000255409 0)
(1.00009 -0.000103334 0)
(0.999652 0.000382754 0)
(0.999549 0.000866884 0)
(0.999899 0.000806568 0)
(0.99988 0.00103379 0)
(0.999666 0.00166657 0)
(0.999845 0.00204374 0)
(1.00025 0.00206068 0)
(1.00041 0.00211216 0)
(1.00043 0.00232772 0)
(1.00066 0.00246702 0)
(1.00106 0.00245886 0)
(1.00129 0.00251534 0)
(1.0012 0.00267119 0)
(1.00095 0.00288684 0)
(1.00075 0.00301607 0)
(1.00008 -0.000163222 0)
(0.999726 -0.000531276 0)
(0.999292 0.000105605 0)
(0.999708 0.000290971 0)
(1.00008 -4.2191e-05 0)
(0.999739 0.000313054 0)
(0.999573 0.000847979 0)
(0.999873 0.00090127 0)
(0.999954 0.00103136 0)
(0.999794 0.00153369 0)
(0.999891 0.00195133 0)
(1.00023 0.00206453 0)
(1.00043 0.00212925 0)
(1.00047 0.00227698 0)
(1.00066 0.00239609 0)
(1.00104 0.00237622 0)
(1.00133 0.00238828 0)
(1.00131 0.00252445 0)
(1.00107 0.00271811 0)
(1.0008 0.00289138 0)
(1.00006 -0.000125606 0)
(0.999788 -0.000464252 0)
(0.999394 4.2432e-05 0)
(0.999692 0.000305294 0)
(1.00006 3.23765e-05 0)
(0.99982 0.000265726 0)
(0.999624 0.000801046 0)
(0.999856 0.000963864 0)
(0.999998 0.00106451 0)
(0.999908 0.00142622 0)
(0.999962 0.00184158 0)
(1.00024 0.00201683 0)
(1.00044 0.00211883 0)
(1.0005 0.00224178 0)
(1.00065 0.00233742 0)
(1.001 0.00231033 0)
(1.00134 0.00226773 0)
(1.0014 0.00236742 0)
(1.0012 0.00254871 0)
(1.0009 0.00273232 0)
(1.00005 -9.68413e-05 0)
(0.999837 -0.000394469 0)
(0.999492 -5.20295e-06 0)
(0.999693 0.000301469 0)
(1.00003 0.00011054 0)
(0.999888 0.000244684 0)
(0.999693 0.000739609 0)
(0.999859 0.000988481 0)
(1.00002 0.00110642 0)
(0.999998 0.00135946 0)
(1.00004 0.00172064 0)
(1.00027 0.00193846 0)