/*--------------------------------*- C++ -*----------------------------------*\
| =========                 |                                                 |
| \\      /  F ield         | OpenFOAM: The Open Source CFD Toolbox           |
|  \\    /   O peration     | Version:  2106                                  |
|   \\  /    A nd           | Website:  www.openfoam.com                      |
|    \\/     M anipulation  |                                                 |
\*---------------------------------------------------------------------------*/
FoamFile
{
    version     2.0;
    format      ascii;
    arch        "LSB;label=32;scalar=64";
    class       surfaceScalarField;
    location    "0.425";
    object      phi;
}
// * * * * * * * * * * * * * * * * * * * * * * * * * * * * * * * * * * * * * //

dimensions      [0 3 -1 0 0 0 0];

oriented        oriented;

internalField   nonuniform List<scalar> 
19000
(
1.18209e-06
-5.70698e-07
1.18514e-06
-2.322e-07
1.18066e-06
-2.78272e-08
1.14706e-06
5.69571e-07
1.15606e-06
-1.32207e-07
1.18574e-06
8.15182e-08
1.20691e-06
-7.87515e-07
1.21538e-06
7.35461e-08
1.23879e-06
-2.86747e-07
1.23774e-06
2.58856e-07
1.23311e-06
7.11568e-08
1.21669e-06
3.75462e-07
1.21737e-06
1.17282e-07
1.21167e-06
1.37973e-07
1.22049e-06
-3.10554e-08
1.21571e-06
-5.24263e-08
1.22271e-06
-1.18762e-07
1.21441e-06
-8.26206e-08
1.21616e-06
-1.02817e-07
-7.36386e-08
1.1828e-06
1.23992e-06
-5.86353e-07
1.24321e-06
-2.35489e-07
1.23869e-06
-2.33065e-08
1.21224e-06
5.96015e-07
1.21794e-06
-1.37902e-07
1.24761e-06
5.18414e-08
1.26983e-06
-8.09737e-07
1.28064e-06
6.27419e-08
1.30358e-06
-3.09694e-07
1.30571e-06
2.56728e-07
1.29629e-06
8.05747e-08
1.28843e-06
3.8333e-07
1.2786e-06
1.27111e-07
1.28317e-06
1.33398e-07
1.2772e-06
-2.50796e-08
1.28587e-06
-6.10981e-08
1.27385e-06
-1.06739e-07
1.28562e-06
-9.43914e-08
1.26287e-06
-8.00734e-08
-7.64609e-08
1.26569e-06
1.29713e-06
-6.00699e-07
1.30637e-06
-2.44733e-07
1.30135e-06
-1.82799e-08
1.28547e-06
6.11896e-07
1.28426e-06
-1.36691e-07
1.31083e-06
2.52632e-08
1.32904e-06
-8.27939e-07
1.34862e-06
4.31616e-08
1.36643e-06
-3.27504e-07
1.37791e-06
2.45243e-07
1.36163e-06
9.68537e-08
1.36165e-06
3.83313e-07
1.34363e-06
1.45133e-07
1.34931e-06
1.27713e-07
1.33684e-06
-1.26046e-08
1.34276e-06
-6.70154e-08
1.33073e-06
-9.47185e-08
1.33602e-06
-9.96804e-08
1.32247e-06
-6.65186e-08
-6.65457e-08
1.31255e-06
1.35384e-06
-6.10434e-07
1.37054e-06
-2.61437e-07
1.36712e-06
-1.48564e-08
1.36085e-06
6.1817e-07
1.35264e-06
-1.28487e-07
1.37127e-06
6.63623e-09
1.38306e-06
-8.39729e-07
1.41072e-06
1.54999e-08
1.42538e-06
-3.42167e-07
1.44323e-06
2.27393e-07
1.42787e-06
1.12218e-07
1.42863e-06
3.82556e-07
1.41045e-06
1.63307e-07
1.40955e-06
1.2861e-07
1.39653e-06
4.18151e-10
1.39532e-06
-6.58084e-08
1.38588e-06
-8.52729e-08
1.38618e-06
-9.99852e-08
1.37722e-06
-5.75497e-08
-5.54457e-08
1.36612e-06
1.41126e-06
-6.13344e-07
1.43367e-06
-2.83845e-07
1.43463e-06
-1.58187e-08
1.43474e-06
6.18064e-07
1.42181e-06
-1.15557e-07
1.42927e-06
-8.28186e-10
1.43439e-06
-8.44844e-07
1.46645e-06
-1.65613e-08
1.48119e-06
-3.56909e-07
1.50217e-06
2.06417e-07
1.49306e-06
1.21327e-07
1.49308e-06
3.82534e-07
1.4767e-06
1.79689e-07
1.47035e-06
1.34959e-07
1.4559e-06
1.48661e-08
1.45046e-06
-6.03684e-08
1.44064e-06
-7.5453e-08
1.43905e-06
-9.8392e-08
1.43143e-06
-4.99299e-08
-4.50511e-08
1.42103e-06
1.47172e-06
-6.09392e-07
1.49595e-06
-3.08072e-07
1.50293e-06
-2.27972e-08
1.50635e-06
6.14645e-07
1.49172e-06
-1.00929e-07
1.48836e-06
2.53171e-09
1.48758e-06
-8.4406e-07
1.52015e-06
-4.91377e-08
1.53604e-06
-3.72796e-07
1.55893e-06
1.83531e-07
1.55645e-06
1.23803e-07
1.55752e-06
3.81463e-07
1.54215e-06
1.95059e-07
1.53323e-06
1.43884e-07
1.517e-06
3.10922e-08
1.50927e-06
-5.26421e-08
1.49861e-06
-6.47896e-08
1.49526e-06
-9.50448e-08
1.48874e-06
-4.34045e-08
-3.44983e-08
1.47818e-06
1.53734e-06
-6.00511e-07
1.55929e-06
-3.30025e-07
1.57157e-06
-3.50828e-08
1.57677e-06
6.09447e-07
1.56279e-06
-8.69485e-08
1.55215e-06
1.31742e-08
1.54631e-06
-8.38223e-07
1.57626e-06
-7.90856e-08
1.59187e-06
-3.88406e-07
1.61607e-06
1.59328e-07
1.61822e-06
1.21658e-07
1.62172e-06
3.77965e-07
1.60714e-06
2.09633e-07
1.59775e-06
1.53277e-07
1.58091e-06
4.79316e-08
1.57212e-06
-4.38561e-08
1.56124e-06
-5.39034e-08
1.55601e-06
-8.98178e-08
1.55038e-06
-3.77686e-08
-2.33724e-08
1.53925e-06
1.60901e-06
-5.89395e-07
1.62586e-06
-3.46873e-07
1.64077e-06
-4.99937e-08
1.64754e-06
6.02675e-07
1.63555e-06
-7.49553e-08
1.62235e-06
2.63708e-08
1.61221e-06
-8.28082e-07
1.63728e-06
-1.04155e-07
1.6502e-06
-4.01324e-07
1.67453e-06
1.34999e-07
1.67903e-06
1.17156e-07
1.68523e-06
3.71764e-07
1.67207e-06
2.22794e-07
1.66385e-06
1.61495e-07
1.64799e-06
6.37929e-08
1.63932e-06
-3.51854e-08
1.62899e-06
-4.35734e-08
1.62205e-06
-8.28753e-08
1.61704e-06
-3.27565e-08
-1.15464e-08
1.60521e-06
1.68639e-06
-5.78214e-07
1.69706e-06
-3.57538e-07
1.71142e-06
-6.43525e-08
1.72001e-06
5.94082e-07
1.71062e-06
-6.5571e-08
1.69882e-06
3.81794e-08
1.68517e-06
-8.14432e-07
1.70425e-06
-1.23241e-07
1.71243e-06
-4.09504e-07
1.73521e-06
1.12222e-07
1.74024e-06
1.12126e-07
1.74889e-06
3.63113e-07
1.73802e-06
2.33669e-07
1.73228e-06
1.67235e-07
1.71872e-06
7.73477e-08
1.71107e-06
-2.7537e-08
1.70201e-06
-3.45091e-08
1.69368e-06
-7.45411e-08
1.68907e-06
-2.8155e-08
8.34379e-10
1.67669e-06
1.76853e-06
-5.68025e-07
1.77339e-06
-3.62393e-07
1.78489e-06
-7.58584e-08
1.7954e-06
5.83573e-07
1.78877e-06
-5.89366e-08
1.78057e-06
4.63816e-08
1.76425e-06
-7.98115e-07
1.77752e-06
-1.36517e-07
1.77996e-06
-4.11945e-07
1.79977e-06
9.24211e-08
1.80405e-06
1.0784e-07
1.81479e-06
3.52376e-07
1.80683e-06
2.41623e-07
1.8043e-06
1.69765e-07
1.7938e-06
8.7853e-08
1.78755e-06
-2.12859e-08
1.78019e-06
-2.71537e-08
1.77083e-06
-6.51844e-08
1.76648e-06
-2.3797e-08
1.3335e-08
1.75398e-06
1.85464e-06
-5.58912e-07
1.8549e-06
-3.62654e-07
1.86265e-06
-8.36096e-08
1.87491e-06
5.71313e-07
1.87076e-06
-5.47895e-08
1.86672e-06
5.0418e-08
1.84849e-06
-7.79884e-07
1.85713e-06
-1.4515e-07
1.85395e-06
-4.08766e-07
1.87016e-06
7.62101e-08
1.873e-06
1.05002e-07
1.88545e-06
3.39925e-07
1.88055e-06
2.46524e-07
1.88124e-06
1.69068e-07
1.8739e-06
9.52015e-08
1.86887e-06
-1.62605e-08
1.86332e-06
-2.16028e-08
1.85328e-06
-5.51482e-08
1.84898e-06
-1.94901e-08
2.53071e-08
1.837e-06
1.94437e-06
-5.50447e-07
1.94153e-06
-3.59813e-07
1.94577e-06
-8.78464e-08
1.9595e-06
5.57585e-07
1.95726e-06
-5.25478e-08
1.95687e-06
5.08049e-08
1.93728e-06
-7.60291e-07
1.94284e-06
-1.50718e-07
1.93498e-06
-4.00899e-07
1.94789e-06
6.33023e-08
1.94908e-06
1.03805e-07
1.96286e-06
3.26146e-07
1.96067e-06
2.48713e-07
1.964e-06
1.65736e-07
1.95947e-06
9.97401e-08
1.95514e-06
-1.19336e-08
1.95119e-06
-1.76526e-08
1.94079e-06
-4.47476e-08
1.93629e-06
-1.49891e-08
3.61063e-08
1.92549e-06
2.03784e-06
-5.42103e-07
2.03328e-06
-3.55248e-07
2.0348e-06
-8.93671e-08
2.04973e-06
5.42658e-07
2.04866e-06
-5.14811e-08
2.05099e-06
4.84757e-08
2.03036e-06
-7.39658e-07
2.03431e-06
-1.54676e-07
2.02301e-06
-3.89599e-07
2.0335e-06
5.28217e-08
2.03323e-06
1.0407e-07
2.04794e-06
3.11436e-07
2.04787e-06
2.48786e-07
2.05291e-06
1.60696e-07
2.05064e-06
1.02013e-07
2.04642e-06
-7.71394e-09
2.04366e-06
-1.49e-08
2.03321e-06
-3.42904e-08
2.02825e-06
-1.00375e-08
4.52868e-08
2.01907e-06
2.13537e-06
-5.33472e-07
2.13015e-06
-3.50024e-07
2.12979e-06
-8.901e-08
2.14572e-06
5.26725e-07
2.14514e-06
-5.09025e-08
2.14931e-06
4.43091e-08
2.12778e-06
-7.18131e-07
2.13117e-06
-1.5806e-07
2.11759e-06
-3.76021e-07
2.12666e-06
4.37539e-08
2.12531e-06
1.05422e-07
2.14057e-06
2.96173e-07
2.14203e-06
2.47324e-07
2.14784e-06
1.54889e-07
2.1473e-06
1.02553e-07
2.14276e-06
-3.17558e-09
2.14071e-06
-1.28497e-08
2.1305e-06
-2.40845e-08
2.12491e-06
-4.44624e-09
5.26939e-08
2.1175e-06
2.23733e-06
-5.24311e-07
2.23215e-06
-3.44842e-07
2.23052e-06
-8.73804e-08
2.24734e-06
5.09897e-07
2.24673e-06
-5.02914e-08
2.25212e-06
3.89201e-08
2.22976e-06
-6.9577e-07
2.23316e-06
-1.6146e-07
2.21815e-06
-3.61013e-07
2.22662e-06
3.52892e-08
2.22459e-06
1.07445e-07
2.24007e-06
2.80696e-07
2.24267e-06
2.44725e-07
2.24849e-06
1.49065e-07
2.24926e-06
1.01792e-07
2.24423e-06
1.84668e-09
2.24238e-06
-1.09953e-08
2.23272e-06
-1.44242e-08
2.22642e-06
1.84743e-09
5.84445e-08
2.22067e-06
2.34406e-06
-5.14497e-07
2.33932e-06
-3.40105e-07
2.33675e-06
-8.48048e-08
2.35442e-06
4.92221e-07
2.35345e-06
-4.93208e-08
2.35972e-06
3.26563e-08
2.33655e-06
-6.72603e-07
2.34022e-06
-1.65131e-07
2.32431e-06
-3.45104e-07
2.33265e-06
2.69533e-08
2.33032e-06
1.09769e-07
2.34573e-06
2.65294e-07
2.34929e-06
2.41164e-07
2.35464e-06
1.43708e-07
2.35637e-06
1.0007e-07
2.35093e-06
7.28339e-09
2.34882e-06
-8.88593e-09
2.33995e-06
-5.55569e-09
2.33302e-06
8.77465e-09
6.28364e-08
2.32863e-06
2.45587e-06
-5.03975e-07
2.45178e-06
-3.36017e-07
2.44839e-06
-8.14085e-08
2.46691e-06
4.73703e-07
2.4654e-06
-4.78185e-08
2.47237e-06
2.56884e-08
2.44844e-06
-6.48667e-07
2.45243e-06
-1.69125e-07
2.43594e-06
-3.28612e-07
2.44432e-06
1.85714e-08
2.442e-06
1.12088e-07
2.45708e-06
2.50215e-07
2.46157e-06
2.36672e-07
2.46622e-06
1.39061e-07
2.46862e-06
9.76678e-08
2.46296e-06
1.29466e-08
2.46028e-06
-6.20106e-09
2.45234e-06
2.38227e-09
2.44496e-06
1.61555e-08
6.62535e-08
2.44154e-06
2.57303e-06
-4.92713e-07
2.56969e-06
-3.32677e-07
2.5655e-06
-7.72122e-08
2.58487e-06
4.54331e-07
2.58276e-06
-4.57133e-08
2.59035e-06
1.81045e-08
2.5657e-06
-6.24024e-07
2.56997e-06
-1.73389e-07
2.55311e-06
-3.11754e-07
2.56151e-06
1.01691e-08
2.55945e-06
1.1415e-07
2.574e-06
2.35667e-07
2.57944e-06
2.31227e-07
2.58334e-06
1.35164e-07
2.58615e-06
9.48547e-08
2.58048e-06
1.86198e-08
2.57709e-06
-2.81121e-09
2.57004e-06
9.43358e-09
2.56248e-06
2.37131e-08
6.90908e-08
2.55964e-06
2.69581e-06
-4.80691e-07
2.69327e-06
-3.30137e-07
2.68826e-06
-7.22013e-08
2.70849e-06
4.34102e-07
2.70576e-06
-4.29921e-08
2.7139e-06
9.97179e-09
2.68864e-06
-5.98763e-07
2.69306e-06
-1.77813e-07
2.67602e-06
-2.94715e-07
2.68431e-06
1.88008e-09
2.68272e-06
1.15737e-07
2.69658e-06
2.21814e-07
2.70297e-06
2.24834e-07
2.7062e-06
1.31938e-07
2.70917e-06
9.18788e-08
2.70367e-06
2.41233e-08
2.69961e-06
1.24846e-09
2.69327e-06
1.57715e-08
2.68584e-06
3.11414e-08
7.16834e-08
2.68325e-06
2.82447e-06
-4.67895e-07
2.82276e-06
-3.28426e-07
2.81692e-06
-6.63606e-08
2.83799e-06
4.13028e-07
2.83468e-06
-3.96796e-08
2.84328e-06
1.36993e-09
2.81753e-06
-5.73011e-07
2.82197e-06
-1.8225e-07
2.80494e-06
-2.7769e-07
2.81294e-06
-6.11259e-09
2.812e-06
1.16671e-07
2.82505e-06
2.08763e-07
2.83232e-06
2.1757e-07
2.83503e-06
1.29229e-07
2.83796e-06
8.89479e-08
2.83273e-06
2.93524e-08
2.82811e-06
5.8667e-09
2.82232e-06
2.15662e-08
2.81527e-06
3.81896e-08
7.42504e-08
2.8127e-06
2.95931e-06
-4.54312e-07
2.95845e-06
-3.27564e-07
2.95178e-06
-5.96893e-08
2.97366e-06
3.91152e-07
2.96981e-06
-3.58309e-08
2.97877e-06
-7.59589e-09
2.95269e-06
-5.46932e-07
2.95697e-06
-1.86526e-07
2.94017e-06
-2.60891e-07
2.94768e-06
-1.36171e-08
2.94752e-06
1.16823e-07
2.95973e-06
1.96552e-07
2.96772e-06
2.09582e-07
2.97008e-06
1.26871e-07
2.97282e-06
8.62061e-08
2.96789e-06
3.42787e-08
2.96286e-06
1.09018e-08
2.95749e-06
2.69384e-08
2.95098e-06
4.46935e-08
7.68829e-08
2.94835e-06
3.10063e-06
-4.39937e-07
3.10063e-06
-3.27558e-07
3.09314e-06
-5.22069e-08
3.11575e-06
3.68544e-07
3.11145e-06
-3.15316e-08
3.12064e-06
-1.67881e-08
3.09444e-06
-5.20727e-07
3.09835e-06
-1.9044e-07
3.082e-06
-2.44543e-07
3.08885e-06
-2.04634e-08
3.08953e-06
1.16141e-07
3.10095e-06
1.85137e-07
3.10947e-06
2.01064e-07
3.11161e-06
1.24722e-07
3.11407e-06
8.37455e-08
3.10944e-06
3.89126e-08
3.10411e-06
1.62315e-08
3.09911e-06
3.19413e-08
3.09323e-06
5.05714e-08
7.95643e-08
3.09055e-06
3.24874e-06
-4.2477e-07
3.24959e-06
-3.28404e-07
3.24134e-06
-4.39568e-08
3.26457e-06
3.45314e-07
3.25994e-06
-2.69007e-08
3.26918e-06
-2.60334e-08
3.24309e-06
-4.94635e-07
3.24642e-06
-1.93772e-07
3.23075e-06
-2.2887e-07
3.23681e-06
-2.65254e-08
3.2383e-06
1.14649e-07
3.24902e-06
1.74422e-07
3.25787e-06
1.9221e-07
3.2599e-06
1.22697e-07
3.26203e-06
8.16131e-08
3.25768e-06
4.32613e-08
3.25213e-06
2.17815e-08
3.24749e-06
3.65796e-08
3.24227e-06
5.57929e-08
8.22098e-08
3.23963e-06
3.40398e-06
-4.08815e-07
3.40566e-06
-3.30084e-07
3.39671e-06
-3.50095e-08
3.42042e-06
3.21608e-07
3.41561e-06
-2.20924e-08
3.4247e-06
-3.51252e-08
3.39898e-06
-4.68921e-07
3.40151e-06
-1.96297e-07
3.38671e-06
-2.14068e-07
3.39192e-06
-3.17407e-08
3.39414e-06
1.12432e-07
3.40426e-06
1.64298e-07
3.4133e-06
1.83179e-07
3.41522e-06
1.20772e-07
3.417e-06
7.98299e-08
3.41299e-06
4.7277e-08
3.40725e-06
2.75235e-08
3.40296e-06
4.08702e-08
3.39841e-06
6.03382e-08
8.47102e-08
3.39591e-06
3.56668e-06
-3.92088e-07
3.56917e-06
-3.32566e-07
3.55962e-06
-2.54651e-08
3.58362e-06
2.97614e-07
3.57882e-06
-1.72957e-08
3.58752e-06
-4.38264e-08
3.56247e-06
-4.43872e-07
3.56397e-06
-1.97794e-07
3.55017e-06
-2.0027e-07
3.55456e-06
-3.61326e-08
3.55737e-06
1.09622e-07
3.56699e-06
1.54676e-07
3.57611e-06
1.74067e-07
3.57789e-06
1.18986e-07
3.57933e-06
7.83919e-08
3.57572e-06
5.08877e-08
3.56984e-06
3.34027e-08
3.56581e-06
4.4904e-08
3.56196e-06
6.4181e-08
8.69511e-08
3.55972e-06
3.73723e-06
-3.74608e-07
3.74046e-06
-3.35801e-07
3.73045e-06
-1.5455e-08
3.75451e-06
2.73559e-07
3.74994e-06
-1.27323e-08
3.75799e-06
-5.18751e-08
3.73391e-06
-4.19787e-07
3.73418e-06
-1.98065e-07
3.72144e-06
-1.87533e-07
3.72511e-06
-3.98013e-08
3.72836e-06
1.06375e-07
3.73751e-06
1.45525e-07
3.74669e-06
1.64888e-07
3.74826e-06
1.17414e-07
3.74935e-06
7.72983e-08
3.74621e-06
5.4034e-08
3.74033e-06
3.9282e-08
3.7364e-06
4.88336e-08
3.73325e-06
6.73336e-08
8.88083e-08
3.73139e-06
3.91599e-06
-3.56407e-07
3.91991e-06
-3.39723e-07
3.9096e-06
-5.14304e-09
3.93344e-06
2.49712e-07
3.92936e-06
-8.65015e-09
3.93649e-06
-5.89986e-08
3.91365e-06
-3.96949e-07
3.91257e-06
-1.96987e-07
3.90085e-06
-1.75815e-07
3.90395e-06
-4.28949e-08
3.9075e-06
1.02817e-07
3.91613e-06
1.36894e-07
3.92541e-06
1.55609e-07
3.92674e-06
1.16086e-07
3.92742e-06
7.66218e-08
3.92479e-06
5.66628e-08
3.91912e-06
4.49507e-08
3.91515e-06
5.2801e-08
3.91259e-06
6.98997e-08
9.01558e-08
3.91124e-06
4.10337e-06
-3.37524e-07
4.10789e-06
-3.44244e-07
4.09747e-06
5.27646e-09
4.12081e-06
2.26368e-07
4.11747e-06
-5.3126e-09
4.1234e-06
-6.49271e-08
4.10203e-06
-3.75572e-07
4.09962e-06
-1.94576e-07
4.08877e-06
-1.64973e-07
4.09144e-06
-4.55624e-08
4.09523e-06
9.9026e-08
4.10324e-06
1.28887e-07
4.11264e-06
1.46206e-07
4.11376e-06
1.14968e-07
4.11391e-06
7.64676e-08
4.11181e-06
5.8764e-08
4.10659e-06
5.01732e-08
4.10253e-06
5.6865e-08
4.10036e-06
7.20702e-08
9.09129e-08
4.0996e-06
4.29979e-06
-3.18011e-07
4.3048e-06
-3.49253e-07
4.29449e-06
1.55829e-08
4.31701e-06
2.03845e-07
4.31469e-06
-2.98623e-09
4.31918e-06
-6.94172e-08
4.29938e-06
-3.55775e-07
4.29578e-06
-1.9098e-07
4.2856e-06
-1.5479e-07
4.28798e-06
-4.79452e-08
4.29197e-06
9.50425e-08
4.29923e-06
1.21621e-07
4.30874e-06
1.367e-07
4.30975e-06
1.13957e-07
4.30929e-06
7.69276e-08
4.30768e-06
6.0379e-08
4.30308e-06
5.47649e-08
4.29899e-06
6.09578e-08
4.297e-06
7.4061e-08
9.11099e-08
4.2968e-06
4.50569e-06
-2.97931e-07
4.51106e-06
-3.54616e-07
4.5011e-06
2.55367e-08
4.52248e-06
1.82469e-07
4.52142e-06
-1.92993e-09
4.5243e-06
-7.2298e-08
4.50607e-06
-3.37541e-07
4.50154e-06
-1.86452e-07
4.49176e-06
-1.45011e-07
4.49399e-06
-5.01676e-08
4.49815e-06
9.08829e-08
4.50457e-06
1.15201e-07
4.51408e-06
1.27184e-07
4.51518e-06
1.12864e-07
4.51404e-06
7.80593e-08
4.5128e-06
6.16211e-08
4.50898e-06
5.85913e-08
4.50501e-06
6.49261e-08
4.50303e-06
7.6035e-08
9.09046e-08
4.50324e-06
4.72154e-06
-2.7736e-07
4.72711e-06
-3.60178e-07
4.71776e-06
3.48874e-08
4.73767e-06
1.62556e-07
4.73812e-06
-2.3839e-09
4.73931e-06
-7.34842e-08
4.72249e-06
-3.2072e-07
4.71736e-06
-1.81324e-07
4.70772e-06
-1.35375e-07
4.70987e-06
-5.23097e-08
4.71422e-06
8.65275e-08
4.71969e-06
1.09736e-07
4.72912e-06
1.17754e-07
4.73053e-06
1.11451e-07
4.72869e-06
7.99003e-08
4.72765e-06
6.26597e-08
4.72466e-06
6.15822e-08
4.72101e-06
6.85751e-08
4.71899e-06
7.80502e-08
9.0523e-08
4.71937e-06
4.94783e-06
-2.5639e-07
4.95341e-06
-3.6576e-07
4.94491e-06
4.33827e-08
4.96307e-06
1.44398e-07
4.96523e-06
-4.54087e-09
4.96472e-06
-7.29768e-08
4.94906e-06
-3.05062e-07
4.94371e-06
-1.75969e-07
4.93396e-06
-1.25623e-07
4.93607e-06
-5.44245e-08
4.94065e-06
8.19494e-08
4.94507e-06
1.05314e-07
4.95428e-06
1.08543e-07
4.95627e-06
1.09466e-07
4.95377e-06
8.23937e-08
4.95271e-06
6.37225e-08
4.95055e-06
6.37391e-08
4.94741e-06
7.17157e-08
4.94542e-06
8.00466e-08
9.01728e-08
4.94577e-06
5.18505e-06
-2.35123e-07
5.19045e-06
-3.71164e-07
5.18306e-06
5.07744e-08
5.19924e-06
1.28222e-07
5.20318e-06
-8.47788e-09
5.2011e-06
-7.08976e-08
5.18627e-06
-2.9024e-07
5.18107e-06
-1.70767e-07
5.17098e-06
-1.15531e-07
5.17306e-06
-5.65011e-08
5.17794e-06
7.70703e-08
5.18127e-06
1.01979e-07
5.19e-06
9.98127e-08
5.19283e-06
1.06639e-07
5.18993e-06
8.52927e-08
5.18852e-06
6.51312e-08
5.18712e-06
6.51356e-08
5.18466e-06
7.41813e-08
5.18281e-06
8.18932e-08
8.99718e-08
5.18301e-06
5.43375e-06
-2.1368e-07
5.43876e-06
-3.76173e-07
5.4327e-06
5.68247e-08
5.44673e-06
1.14195e-07
5.45243e-06
-1.41714e-08
5.44899e-06
-6.7458e-08
5.43463e-06
-2.75882e-07
5.42994e-06
-1.66078e-07
5.41936e-06
-1.04952e-07
5.42125e-06
-5.83885e-08
5.42669e-06
7.16283e-08
5.42882e-06
9.98508e-08
5.43673e-06
9.18972e-08
5.44064e-06
1.02735e-07
5.43771e-06
8.82183e-08
5.43569e-06
6.71512e-08
5.43487e-06
6.59594e-08
5.43318e-06
7.58651e-08
5.43165e-06
8.34297e-08
8.99049e-08
5.43171e-06
5.69447e-06
-1.92192e-07
5.69886e-06
-3.8056e-07
5.69437e-06
6.13122e-08
5.70613e-06
1.02439e-07
5.71347e-06
-2.1518e-08
5.70896e-06
-6.29435e-08
5.69467e-06
-2.61589e-07
5.69081e-06
-1.62224e-07
5.67974e-06
-9.38764e-08
5.68104e-06
-5.9695e-08
5.6874e-06
6.52678e-08
5.68842e-06
9.88352e-08
5.695e-06
8.53138e-08
5.70011e-06
9.76262e-08
5.69763e-06
9.06988e-08
5.69492e-06
6.98656e-08
5.69436e-06
6.65137e-08
5.69347e-06
7.67553e-08
5.69238e-06
8.4522e-08
8.98396e-08
5.69244e-06
5.96781e-06
-1.70809e-07
5.97133e-06
-3.84079e-07
5.96862e-06
6.40241e-08
5.978e-06
9.30524e-08
5.98685e-06
-3.03668e-08
5.98162e-06
-5.77085e-08
5.96697e-06
-2.46941e-07
5.96418e-06
-1.59437e-07
5.95279e-06
-8.24843e-08
5.95295e-06
-5.98521e-08
5.9605e-06
5.77159e-08
5.96087e-06
9.84593e-08
5.96559e-06
8.06011e-08
5.97164e-06
9.15751e-08
5.97016e-06
9.21814e-08
5.96689e-06
7.31325e-08
5.96625e-06
6.71505e-08
5.96606e-06
7.69497e-08
5.96549e-06
8.50868e-08
8.95934e-08
5.96574e-06
6.25437e-06
-1.49693e-07
6.25676e-06
-3.86471e-07
6.25602e-06
6.4765e-08
6.26296e-06
8.61165e-08
6.27312e-06
-4.05274e-08
6.2676e-06
-5.21862e-08
6.25215e-06
-2.3149e-07
6.25054e-06
-1.57828e-07
6.23926e-06
-7.12053e-08
6.23756e-06
-5.8155e-08
6.24639e-06
4.88879e-08
6.24682e-06
9.80248e-08
6.24936e-06
7.80619e-08
6.25577e-06
8.51645e-08
6.25571e-06
9.22459e-08
6.25225e-06
7.65883e-08
6.25125e-06
6.81493e-08
6.25158e-06
7.6623e-08
6.25155e-06
8.51191e-08
8.90002e-08
6.25214e-06
6.5548e-06
-1.29021e-07
6.55579e-06
-3.87466e-07
6.55719e-06
6.33644e-08
6.56164e-06
8.16705e-08
6.57285e-06
-5.17406e-08
6.56758e-06
-4.69133e-08
6.5509e-06
-2.14807e-07
6.55032e-06
-1.57257e-07
6.53985e-06
-6.07305e-08
6.53564e-06
-5.39411e-08
6.54545e-06
3.90743e-08
6.54685e-06
9.66221e-08
6.54724e-06
7.76771e-08
6.55322e-06
7.91776e-08
6.55474e-06
9.07338e-08
6.55157e-06
7.97595e-08
6.55011e-06
6.96024e-08
6.55074e-06
7.59911e-08
6.55118e-06
8.46814e-08
8.80046e-08
6.55218e-06
6.86975e-06
-1.08983e-07
6.86906e-06
-3.86777e-07
6.87274e-06
5.9685e-08
6.87474e-06
7.96785e-08
6.88663e-06
-6.36329e-08
6.88225e-06
-4.25378e-08
6.86397e-06
-1.96525e-07
6.86405e-06
-1.57336e-07
6.8552e-06
-5.1883e-08
6.8482e-06
-4.69436e-08
6.85816e-06
2.91154e-08
6.86136e-06
9.34268e-08
6.86013e-06
7.89022e-08
6.86484e-06
7.4475e-08
6.86774e-06
8.7827e-08
6.86538e-06
8.21251e-08
6.86354e-06
7.14355e-08
6.86425e-06
7.52822e-08
6.86511e-06
8.38217e-08
8.67185e-08
6.8664e-06
7.19994e-06
-8.97822e-08
7.19726e-06
-3.84106e-07
7.20333e-06
5.36186e-08
7.20299e-06
8.00206e-08
7.21506e-06
-7.57043e-08
7.21229e-06
-3.97651e-08
7.1922e-06
-1.7644e-07
7.19234e-06
-1.57471e-07
7.18587e-06
-4.54149e-08
7.17639e-06
-3.74674e-08
7.18518e-06
2.0328e-08
7.19069e-06
8.79149e-08
7.18876e-06
8.08317e-08
7.19162e-06
7.16222e-08
7.19539e-06
8.4056e-08
7.19423e-06
8.32778e-08
7.19224e-06
7.34299e-08
7.19285e-06
7.46765e-08
7.19407e-06
8.25944e-08
8.53151e-08
7.19548e-06
7.54607e-06
-7.1628e-08
7.54112e-06
-3.79153e-07
7.54964e-06
4.51005e-08
7.54721e-06
8.2451e-08
7.5588e-06
-8.7295e-08
7.55831e-06
-3.92837e-08
7.53654e-06
-1.54662e-07
7.53583e-06
-1.56762e-07
7.5324e-06
-4.19927e-08
7.52114e-06
-2.61978e-08
7.52753e-06
1.39382e-08
7.53525e-06
8.01865e-08
7.53366e-06
8.24209e-08
7.53459e-06
7.06984e-08
7.53849e-06
8.01528e-08
7.53865e-06
8.31173e-08
7.53689e-06
7.51925e-08
7.53729e-06
7.42774e-08
7.53882e-06
8.10613e-08
8.38862e-08
7.54025e-06
7.90892e-06
-5.47333e-08
7.90138e-06
-3.7162e-07
7.91239e-06
3.40906e-08
7.90826e-06
8.65879e-08
7.91851e-06
-9.75463e-08
7.92089e-06
-4.16657e-08
7.89796e-06
-1.31731e-07
7.8953e-06
-1.54107e-07
7.89512e-06
-4.18085e-08
7.88326e-06
-1.43409e-08
7.88638e-06
1.08237e-08
7.89558e-06
7.09834e-08
7.89533e-06
8.26746e-08
7.89472e-06
7.13027e-08
7.89799e-06
7.68868e-08
7.89929e-06
8.1819e-08
7.89817e-06
7.63083e-08
7.89836e-06
7.40882e-08
7.90013e-06
7.92905e-08
8.23905e-08
7.90163e-06
8.28926e-06
-3.93075e-08
8.27887e-06
-3.61233e-07
8.29233e-06
2.06276e-08
8.28701e-06
9.19056e-08
8.29498e-06
-1.05517e-07
8.30056e-06
-4.72429e-08
8.27737e-06
-1.08539e-07
8.27174e-06
-1.48482e-07
8.27443e-06
-4.44933e-08
8.26344e-06
-3.35019e-09
8.26294e-06
1.13198e-08
8.27251e-06
6.14122e-08
8.27426e-06
8.09327e-08
8.27278e-06
7.27736e-08
8.27494e-06
7.47364e-08
8.27696e-06
7.97951e-08
8.27672e-06
7.65457e-08
8.27688e-06
7.3926e-08
8.27873e-06
7.74408e-08
8.06383e-08
8.28049e-06
8.6879e-06
-2.55461e-08
8.67446e-06
-3.47792e-07
8.69018e-06
4.90512e-09
8.68437e-06
9.7717e-08
8.68916e-06
-1.10307e-07
8.69789e-06
-5.59704e-08
8.67562e-06
-8.62724e-08
8.66636e-06
-1.39221e-07
8.67101e-06
-4.91437e-08
8.66215e-06
5.5165e-09
8.65845e-06
1.50153e-08
8.66711e-06
5.27499e-08
8.67096e-06
7.70891e-08
8.66949e-06
7.42343e-08
8.67042e-06
7.38114e-08
8.67263e-06
7.75852e-08
8.67324e-06
7.59367e-08
8.67365e-06
7.35147e-08
8.6755e-06
7.55931e-08
7.85791e-08
8.67756e-06
9.10569e-06
-1.36194e-08
9.08913e-06
-3.31231e-07
9.10672e-06
-1.26864e-08
9.10125e-06
1.03193e-07
9.10216e-06
-1.1122e-07
9.11347e-06
-6.72832e-08
9.09356e-06
-6.63639e-08
9.0804e-06
-1.26054e-07
9.08573e-06
-5.4482e-08
9.07987e-06
1.13851e-08
9.07393e-06
2.09541e-08
9.08049e-06
4.61889e-08
9.08611e-06
7.14659e-08
9.08555e-06
7.47933e-08
9.08545e-06
7.39185e-08
9.08728e-06
7.57499e-08
9.0886e-06
7.4615e-08
9.08947e-06
7.26517e-08
9.09132e-06
7.37371e-08
7.62445e-08
9.09366e-06
9.5435e-06
-3.66e-09
9.52392e-06
-3.11647e-07
9.54278e-06
-3.15494e-08
9.53858e-06
1.07395e-07
9.53518e-06
-1.07824e-07
9.54808e-06
-8.01824e-08
9.53182e-06
-5.01051e-08
9.51516e-06
-1.09389e-07
9.5197e-06
-5.90272e-08
9.51712e-06
1.39634e-08
9.5101e-06
2.79762e-08
9.51398e-06
4.23131e-08
9.52063e-06
6.48154e-08
9.52158e-06
7.38377e-08
9.52093e-06
7.45762e-08
9.52207e-06
7.46056e-08
9.52371e-06
7.29767e-08
9.52513e-06
7.12271e-08
9.52707e-06
7.17999e-08
7.36344e-08
9.52968e-06
1.00022e-05
4.24994e-09
9.97989e-06
-2.89311e-07
9.99927e-06
-5.09262e-08
9.99726e-06
1.09404e-07
9.9895e-06
-1.00063e-07
1.00027e-05
-9.33713e-08
9.99097e-06
-3.83925e-08
9.97178e-06
-9.01985e-08
9.97413e-06
-6.1371e-08
9.9747e-06
1.33909e-08
9.96774e-06
3.49307e-08
9.96888e-06
4.11815e-08
9.97551e-06
5.81773e-08
9.97825e-06
7.11014e-08
9.97774e-06
7.50825e-08
9.97813e-06
7.42205e-08
9.97966e-06
7.14451e-08
9.98153e-06
6.93578e-08
9.98372e-06
6.96098e-08
7.07499e-08
9.9866e-06
1.04828e-05
1.00926e-08
1.04582e-05
-2.64679e-07
1.04772e-05
-6.99246e-08
1.04781e-05
1.08465e-07
1.04663e-05
-8.83046e-08
1.04783e-05
-1.05366e-07
1.04716e-05
-3.16787e-08
1.04512e-05
-6.97953e-08
1.04505e-05
-6.06999e-08
1.04536e-05
1.03851e-08
1.04477e-05
4.08216e-08
1.04463e-05
4.25322e-08
1.0452e-05
5.24848e-08
1.04563e-05
6.67813e-08
1.04567e-05
7.47183e-08
1.04566e-05
7.43374e-08
1.04576e-05
7.03876e-08
1.04598e-05
6.71826e-08
1.04623e-05
6.70824e-08
6.77159e-08
1.04654e-05
1.09862e-05
1.39193e-08
1.09598e-05
-2.38332e-07
1.09776e-05
-8.76335e-08
1.0982e-05
1.04061e-07
1.09669e-05
-7.32529e-08
1.09763e-05
-1.14759e-07
1.09744e-05
-2.97904e-08
1.09544e-05
-4.9781e-08
1.09504e-05
-5.66922e-08
1.09548e-05
5.93483e-09
1.09507e-05
4.49446e-08
1.09475e-05
4.5731e-08
1.09514e-05
4.85555e-08
1.09568e-05
6.14357e-08
1.09586e-05
7.29531e-08
1.09584e-05
7.45033e-08
1.09589e-05
6.98737e-08
1.0961e-05
6.50706e-08
1.09639e-05
6.41926e-08
6.45406e-08
1.09671e-05
1.15134e-05
1.586e-08
1.14861e-05
-2.10989e-07
1.15016e-05
-1.03155e-07
1.15096e-05
9.60358e-08
1.14924e-05
-5.60059e-08
1.1498e-05
-1.20361e-07
1.15003e-05
-3.20636e-08
1.14821e-05
-3.16319e-08
1.14749e-05
-4.94913e-08
1.14798e-05
1.00943e-09
1.14779e-05
4.68865e-08
1.14736e-05
5.00546e-08
1.14753e-05
4.68265e-08
1.14809e-05
5.58475e-08
1.14842e-05
6.96337e-08
1.14845e-05
7.41717e-08
1.14847e-05
6.96961e-08
1.14863e-05
6.35169e-08
1.14894e-05
6.10858e-08
6.11873e-08
1.14927e-05
1.20656e-05
1.61191e-08
1.2038e-05
-1.83413e-07
1.20505e-05
-1.15709e-07
1.2062e-05
8.4597e-08
1.20439e-05
-3.78931e-08
1.20449e-05
-1.21368e-07
1.20503e-05
-3.74596e-08
1.20352e-05
-1.65835e-08
1.20253e-05
-3.96083e-08
1.20298e-05
-3.40691e-09
1.20301e-05
4.65192e-08
1.20256e-05
5.46023e-08
1.20251e-05
4.72725e-08
1.203e-05
5.09861e-08
1.20346e-05
6.49881e-08
1.2036e-05
7.27685e-08
1.20361e-05
6.96217e-08
1.20371e-05
6.25756e-08
1.20399e-05
5.82551e-08
5.76225e-08
1.20434e-05
1.26437e-05
1.4962e-08
1.26167e-05
-1.56389e-07
1.26257e-05
-1.24679e-07
1.264e-05
7.02842e-08
1.26224e-05
-2.03104e-08
1.26186e-05
-1.17503e-07
1.26258e-05
-4.47066e-08
1.26146e-05
-5.38566e-09
1.26029e-05
-2.78504e-08
1.26059e-05
-6.48754e-09
1.26085e-05
4.39067e-08
1.26046e-05
5.85371e-08
1.26024e-05
4.95233e-08
1.26057e-05
4.76332e-08
1.26112e-05
5.95171e-08
1.2614e-05
6.99552e-08
1.26143e-05
6.92957e-08
1.26149e-05
6.20405e-08
1.2617e-05
5.61105e-08
5.4038e-08
1.26206e-05
1.32492e-05
1.27156e-08
1.32235e-05
-1.30694e-07
1.32285e-05
-1.2966e-07
1.32449e-05
5.38694e-08
1.32291e-05
-4.50802e-09
1.32208e-05
-1.09182e-07
1.32283e-05
-5.22342e-08
1.32213e-05
1.62785e-09
1.32087e-05
-1.52334e-08
1.32097e-05
-7.56297e-09
1.32143e-05
3.93636e-08
1.32117e-05
6.1104e-08
1.32083e-05
5.29455e-08
1.32097e-05
4.61874e-08
1.32153e-05
5.39525e-08
1.32195e-05
6.57194e-08
1.32208e-05
6.80549e-08
1.3221e-05
6.17831e-08
1.32226e-05
5.45761e-08
5.0898e-08
1.32257e-05
1.38831e-05
9.734e-09
1.38595e-05
-1.07008e-07
1.38603e-05
-1.30489e-07
1.38779e-05
3.62643e-08
1.38649e-05
8.45452e-09
1.38528e-05
-9.70968e-08
1.38593e-05
-5.86485e-08
1.38563e-05
4.62884e-09
1.3844e-05
-2.93001e-09
1.38426e-05
-6.18408e-09
1.38484e-05
3.35342e-08
1.3848e-05
6.15154e-08
1.3844e-05
5.69206e-08
1.38438e-05
4.64514e-08
1.38485e-05
4.924e-08
1.38538e-05
6.03491e-08
1.38565e-05
6.5421e-08
1.38571e-05
6.11947e-08
1.38581e-05
5.35122e-08
4.85426e-08
1.38605e-05
1.4547e-05
6.36715e-09
1.45259e-05
-8.58416e-08
1.45227e-05
-1.27366e-07
1.45405e-05
1.85482e-08
1.4531e-05
1.78695e-08
1.45163e-05
-8.23523e-08
1.45204e-05
-6.27826e-08
1.45209e-05
4.20635e-09
1.451e-05
7.9351e-09
1.45061e-05
-2.31949e-09
1.45123e-05
2.73997e-08
1.45144e-05
5.93957e-08
1.45108e-05
6.04693e-08
1.45091e-05
4.81451e-08
1.45124e-05
4.59293e-08
1.45183e-05
5.44993e-08
1.45224e-05
6.13642e-08
1.45237e-05
5.98712e-08
1.45246e-05
5.2589e-08
4.67608e-08
1.45264e-05
1.52423e-05
2.94275e-09
1.5224e-05
-6.75466e-08
1.52174e-05
-1.20748e-07
1.52342e-05
1.73308e-09
1.52286e-05
2.34953e-08
1.52124e-05
-6.62165e-08
1.52135e-05
-6.38718e-08
1.52165e-05
1.19643e-09
1.5208e-05
1.65152e-08
1.52021e-05
3.55401e-09
1.52073e-05
2.21449e-08
1.52118e-05
5.49086e-08
1.52099e-05
6.24349e-08
1.52071e-05
5.09046e-08
1.52089e-05
4.41325e-08
1.52145e-05
4.89354e-08
1.52196e-05
5.62386e-08
1.52221e-05
5.73287e-08
1.52231e-05
5.16456e-08
4.5385e-08
1.52245e-05
1.59705e-05
-2.65325e-10
1.59553e-05
-5.22903e-08
1.59459e-05
-1.11338e-07
1.59608e-05
-1.31776e-08
1.59589e-05
2.53708e-08
1.59425e-05
-4.98443e-08
1.59405e-05
-6.18138e-08
1.59449e-05
-3.23636e-09
1.59391e-05
2.23105e-08
1.59321e-05
1.05486e-08
1.59354e-05
1.8901e-08
1.59418e-05
4.85145e-08
1.5942e-05
6.21707e-08
1.59391e-05
5.38604e-08
1.59394e-05
4.38174e-08
1.59439e-05
4.44168e-08
1.59498e-05
5.03611e-08
1.59535e-05
5.36505e-08
1.59549e-05
5.02259e-08
4.42217e-08
1.5956e-05
1.67334e-05
-3.04486e-09
1.67211e-05
-4.00381e-08
1.67098e-05
-9.99841e-08
1.6722e-05
-2.5436e-08
1.67234e-05
2.39904e-08
1.6708e-05
-3.43822e-08
1.67029e-05
-5.68061e-08
1.67077e-05
-8.0173e-09
1.67048e-05
2.52284e-08
1.66978e-05
1.75899e-08
1.66985e-05
1.81185e-08
1.67056e-05
4.14936e-08
1.67084e-05
5.93048e-08
1.67063e-05
5.60044e-08
1.67053e-05
4.47722e-08
1.67084e-05
4.13827e-08
1.67141e-05
4.4664e-08
1.6719e-05
4.8752e-08
1.67211e-05
4.80453e-08
4.30255e-08
1.67223e-05
1.75326e-05
-5.24208e-09
1.75232e-05
-3.06355e-08
1.75106e-05
-8.74785e-08
1.75199e-05
-3.46733e-08
1.75237e-05
2.01907e-08
1.75101e-05
-2.08252e-08
1.75027e-05
-4.93547e-08
1.75068e-05
-1.21662e-08
1.75066e-05
2.54224e-08
1.75003e-05
2.39334e-08
1.74991e-05
1.93106e-08
1.75052e-05
3.5395e-08
1.75103e-05
5.41998e-08
1.751e-05
5.62977e-08
1.75082e-05
4.65478e-08
1.75099e-05
3.97299e-08
1.75143e-05
4.0278e-08
1.75198e-05
4.31932e-08
1.75232e-05
4.4652e-08
4.17635e-08
1.75245e-05
1.83699e-05
-6.77472e-09
1.8363e-05
-2.37879e-08
1.83501e-05
-7.45872e-08
1.83562e-05
-4.06987e-08
1.83616e-05
1.47116e-08
1.83505e-05
-9.66284e-09
1.83414e-05
-4.03007e-08
1.83441e-05
-1.48159e-08
1.83462e-05
2.3319e-08
1.83413e-05
2.87845e-08
1.83387e-05
2.19664e-08
1.83431e-05
3.10132e-08
1.83493e-05
4.79635e-08
1.83513e-05
5.43256e-08
1.83498e-05
4.79651e-08
1.835e-05
3.96011e-08
1.83531e-05
3.71528e-08
1.83577e-05
3.86192e-08
1.83621e-05
4.01772e-08
3.95854e-08