/*--------------------------------*- C++ -*----------------------------------*\
| =========                 |                                                 |
| \\      /  F ield         | OpenFOAM: The Open Source CFD Toolbox           |
|  \\    /   O peration     | Version:  2106                                  |
|   \\  /    A nd           | Website:  www.openfoam.com                      |
|    \\/     M anipulation  |                                                 |
\*---------------------------------------------------------------------------*/
FoamFile
{
    version     2.0;
    format      ascii;
    arch        "LSB;label=32;scalar=64";
    class       volScalarField;
    location    "0.63";
    object      p;
}
// * * * * * * * * * * * * * * * * * * * * * * * * * * * * * * * * * * * * * //

dimensions      [0 2 -2 0 0 0 0];

internalField   nonuniform List<scalar> 
9600
(
5.53994e-11
0.000730482
-0.00110426
0.000155051
0.000769727
0.00173031
0.00035961
0.00152357
0.00117745
0.00166901
0.0012129
0.00174038
0.00204847
0.00315412
0.00351736
0.00384251
0.00519593
0.00630041
0.00767795
0.0130925
2.61271e-06
0.000717444
-0.00110103
0.000166833
0.000759426
0.00172481
0.000360481
0.00152386
0.00118028
0.00166561
0.00121331
0.00173989
0.00205305
0.00315016
0.00351957
0.00381808
0.00520735
0.00625335
0.00788232
0.0126692
4.09921e-06
0.000702882
-0.00109339
0.000180738
0.000747013
0.0017202
0.000364074
0.00152431
0.00118445
0.00165971
0.00121656
0.00173773
0.00205951
0.00314252
0.00351632
0.00379129
0.00521543
0.00621085
0.00795567
0.0121235
3.84427e-06
0.000689447
-0.00108184
0.000191796
0.000733121
0.00171921
0.000369458
0.00152483
0.00118854
0.00165209
0.00122199
0.00173326
0.00206685
0.00313234
0.00350922
0.00376244
0.00522263
0.0061639
0.00798386
0.0116533
2.37477e-06
0.00067774
-0.0010657
0.000199516
0.000717661
0.00172039
0.000375882
0.0015247
0.00119162
0.00164273
0.00122881
0.00172691
0.00207507
0.00311987
0.00350067
0.00372904
0.00523163
0.00611104
0.00798641
0.0112351
2.43292e-08
0.00066831
-0.00104485
0.000203178
0.000700968
0.0017226
0.0003827
0.001523
0.00119336
0.00163172
0.00123673
0.00171925
0.00208413
0.00310543
0.00349081
0.0036926
0.00524035
0.00605265
0.0079616
0.0108457
-2.92032e-06
0.000661175
-0.00102009
0.000202856
0.00068368
0.00172535
0.00038932
0.00151947
0.00119423
0.00161943
0.00124551
0.00171057
0.00209415
0.00308912
0.00348081
0.00365364
0.00524516
0.00599213
0.00790681
0.0104772
-6.16985e-06
0.000655783
-0.00099246
0.000199539
0.000666278
0.00172837
0.000395596
0.00151436
0.00119505
0.00160438
0.001255
0.00170097
0.00210523
0.00307101
0.00347128
0.00361194
0.00524431
0.00593154
0.00781995
0.010126
-9.49092e-06
0.000651379
-0.000962776
0.000194382
0.000648897
0.0017315
0.000401779
0.00150796
0.00119649
0.00159037
0.00126509
0.00169043
0.00211734
0.00305086
0.003462
0.0035683
0.00523587
0.00587185
0.00770094
0.00978988
-1.27229e-05
0.000647296
-0.000931525
0.000188281
0.000631503
0.00173466
0.00040825
0.00150034
0.00119894
0.00157514
0.00127575
0.00167878
0.00213033
0.00302857
0.00345251
0.00352406
0.0052171
0.00581395
0.00755053
0.00946195
-1.57595e-05
0.000643048
-0.000898927
0.000181834
0.00061402
0.00173765
0.000415407
0.00149145
0.00120261
0.00155853
0.00128702
0.00166588
0.00214402
0.00300433
0.00344203
0.00348043
0.00518588
0.00575798
0.00737102
0.00913704
-1.85278e-05
0.000638312
-0.000865056
0.0001754
0.000596374
0.00174028
0.000423617
0.00148115
0.0012076
0.0015404
0.00129892
0.00165168
0.00215823
0.00297853
0.00342937
0.00343849
0.00514091
0.00570315
0.00716667
0.00881037
-2.09741e-05
0.000632896
-0.000829925
0.000169165
0.000578532
0.00174235
0.000433171
0.0014693
0.00121396
0.00152063
0.00131147
0.00163627
0.00217262
0.00295174
0.00341321
0.00339885
0.0050814
0.00565203
0.00694262
0.00847777
-2.30524e-05
0.000626688
-0.000793557
0.000163206
0.000560502
0.00174369
0.000444256
0.00145572
0.00122175
0.00149915
0.00132489
0.0016198
0.00218669
0.00292472
0.00339241
0.00336258
0.00500698
0.00559086
0.00670453
0.00813668
-2.4719e-05
0.000619614
-0.00075601
0.000157532
0.000542326
0.00174414
0.000456968
0.00144028
0.00123097
0.00147592
0.00133844
0.00160255
0.00219978
0.00289825
0.00336595
0.00332744
0.004918
0.00552165
0.00645807
0.00778629
-2.59314e-05
0.000611622
-0.000717379
0.000152126
0.00052406
0.00174353
0.000471347
0.00142289
0.00124161
0.00145097
0.00135202
0.00158496
0.00221108
0.00287289
0.00333291
0.00329357
0.00481579
0.00544105
0.00620797
0.00742722
-2.66472e-05
0.000602665
-0.00067778
0.000146966
0.000505765
0.00174172
0.000487385
0.00140347
0.00125362
0.00142441
0.00136521
0.00156756
0.0022198
0.00284899
0.0032928
0.0032595
0.00470227
0.00534629
0.00595727
0.00706128
-2.68235e-05
0.000592698
-0.000637338
0.00014205
0.000487491
0.00173858
0.000505053
0.00138197
0.00126691
0.00139646
0.0013775
0.00155087
0.00222521
0.00282672
0.00324555
0.00322317
0.00457947
0.00523559
0.00570745
0.006691
-2.64163e-05
0.000581675
-0.000596181
0.000137405
0.00046927
0.00173402
0.000524317
0.00135836
0.00128133
0.00136742
0.00138834
0.00153533
0.00222674
0.00280592
0.00319146
0.00318251
0.00444908
0.00510845
0.00545911
0.00631931
-2.5383e-05
0.000569558
-0.000554456
0.000133097
0.000451112
0.00172797
0.000545125
0.00133267
0.00129668
0.00133764
0.00139722
0.00152135
0.00222397
0.00278601
0.00313106
0.00313556
0.00431225
0.00496546
0.00521217
0.00594927
-2.36838e-05
0.00055632
-0.00051232
0.000129216
0.000432991
0.00172043
0.00056739
0.00130493
0.00131273
0.00130743
0.00140364
0.00150925
0.00221666
0.00276633
0.00306493
0.0030807
0.00416968
0.00480757
0.00496579
0.0055838
-2.12843e-05
0.000541962
-0.000469944
0.000125874
0.000414849
0.00171142
0.000591054
0.00127513
0.00132928
0.00127716
0.00140712
0.00149918
0.00220464
0.00274618
0.00299348
0.00301672
0.00402194
0.0046359
0.00471868
0.0052252
-1.81577e-05
0.000526497
-0.000427529
0.00012322
0.000396604
0.00170099
0.000616105
0.00124328
0.00134605
0.00124717
0.00140733
0.00149114
0.00218771
0.00272485
0.002917
0.00294231
0.00386965
0.00445264
0.00446963
0.00487443
-1.42839e-05
0.00050996
-0.000385314
0.000121436
0.000378164
0.00168917
0.00064253
0.00120943
0.00136284
0.00121773
0.00140396
0.00148528
0.00216552
0.00270149
0.00283602
0.00285596
0.00371316
0.00426085
0.00421786
0.0045305
-9.65803e-06
0.000492428
-0.00034357
0.000120714
0.000359435
0.00167598
0.000670381
0.00117357
0.00137947
0.00118908
0.00139654
0.00148192
0.00213775
0.00267477
0.00275143
0.00275663
0.00355195
0.00406379
0.00396408
0.00419081
-4.29554e-06
0.000474034
-0.000302599
0.000121241
0.000340348
0.00166138
0.000699768
0.00113561
0.00139584
0.00116146
0.00138439
0.00148133
0.00210424
0.00264304
0.00266462
0.00264409
0.00338439
0.00386424
0.00371116
0.00385279
1.76307e-06
0.000454967
-0.00026275
0.000123194
0.000320901
0.00164531
0.000730854
0.00109546
0.00141178
0.00113529
0.00136678
0.00148374
0.00206499
0.00260414
0.00257713
0.00251918
0.00320829
0.00366368
0.00346305
0.00351597
8.45835e-06
0.000435448
-0.000224404
0.000126743
0.000301144
0.00162758
0.000763964
0.00105301
0.00142677
0.00111129
0.00134285
0.00148913
0.00202062
0.00255529
0.00248972
0.00238433
0.00302175
0.0034613
0.00322301
0.00318367
1.57087e-05
0.000415748
-0.000187964
0.000131968
0.000281237
0.00160796
0.000799458
0.00100826
0.00144026
0.00109049
0.00131136
0.00149685
0.00197267
0.00249369
0.00240187
0.00224334
0.00282414
0.00325473
0.00299233
0.00286182
2.33849e-05
0.000396228
-0.0001538
0.000138833
0.000261442
0.00158601
0.000837878
0.000961386
0.00145075
0.00107435
0.00127101
0.00150517
0.00192366
0.00241734
0.00231192
0.00210049
0.00261676
0.0030416
0.00276971
0.00255554
3.13322e-05
0.000377285
-0.000122251
0.000147222
0.000242136
0.00156113
0.00087981
0.000912513
0.00145697
0.00106473
0.00122124
0.00151112
0.00187653
0.00232573
0.00221711
0.00195914
0.00240194
0.00282032
0.00255283
0.00226689
3.93728e-05
0.000359346
-9.35808e-05
0.000156885
0.000223871
0.00153262
0.000925413
0.000862852
0.00145724
0.00106313
0.00116239
0.0015106
0.00183361
0.00222007
0.00211398
0.00182125
0.00218257
0.00258981
0.00233962
0.00199582
4.72944e-05
0.000342838
-6.79152e-05
0.00016741
0.000207243
0.00149977
0.000974734
0.000813881
0.0014491
0.00106989
0.00109592
0.00149905
0.001796
0.00210378
0.00199914
0.00168742
0.00196276
0.00234895
0.00212754
0.00174202
5.48851e-05
0.000328097
-4.5288e-05
0.000178212
0.00019302
0.00146208
0.00103136
0.000767479
0.00143018
0.00108434
0.00102455
0.00147228
0.00176306
0.00198186
0.0018701
0.00155628
0.00174786
0.00209804
0.00191229
0.0015048
6.19299e-05
0.000315431
-2.55397e-05
0.000188459
0.00018205
0.00141938
0.00108653
0.000726092
0.00139893
0.00110424
0.000951854
0.00142744
0.0017323
0.00185977
0.00172636
0.00142436
0.00154255
0.00184058
0.00168843
0.00128128
6.82206e-05
0.000305105
-8.1788e-06
0.000197081
0.000174871
0.00137173
0.00114208
0.00069256
0.00135449
0.00112664
0.00088212
0.00136393
0.00169968
0.00174201
0.00156963
0.00128723
0.00134906
0.00158313
0.00145218
0.00106524
7.35798e-05
0.000297209
7.63429e-06
0.000202871
0.000171544
0.00131964
0.00119592
0.000669399
0.0012964
0.00114654
0.000818994
0.0012831
0.00166108
0.00163125
0.00140283
0.0011406
0.00116684
0.00133301
0.00120425
0.00084845
7.79001e-05
0.000291615
2.29512e-05
0.000204695
0.000171574
0.00126459
0.00124542
0.000657857
0.00122703
0.00115901
0.000763014
0.00118787
0.00161344
0.00152903
0.00122963
0.00098092
0.000992779
0.0010964
0.000949966
0.000623847
8.11655e-05
0.000287967
3.89306e-05
0.000201685
0.000173908
0.0012087
0.00128798
0.000658132
0.00115091
0.00116005
0.000713213
0.00108119
0.00155454
0.00143624
0.00105454
0.000805367
0.00082171
0.000877669
0.000697283
0.000388216
8.33881e-05
0.000285699
5.68859e-05
0.000193501
0.000176594
0.00115436
0.00132174
0.000668805
0.00107245
0.00114828
0.000667377
0.000965004
0.00148244
0.00135278
0.000882836
0.000612868
0.000646928
0.000678414
0.000455644
0.000143077
8.46318e-05
0.000284077
7.78985e-05
0.000180441
0.000176905
0.00110362
0.00134626
0.000686498
0.000994987
0.00112415
0.000624042
0.000840821
0.00139517
0.00127731
0.000720203
0.000405629
0.000460773
0.000495159
0.000234368
-0.000105345
8.50437e-05
0.000282269
0.000102587
0.00016373
0.00017175
0.00105726
0.00136284
0.000707029
0.000919627
0.00109025
0.000582674
0.000709937
0.00129048
0.00120707
0.000572308
0.000189333
0.000256635
0.000319453
4.03476e-05
-0.000346009
8.48476e-05
0.000279431
0.000131094
0.000145551
0.00015818
0.00101493
0.00137396
0.000727446
0.000847165
0.00104876
0.000543956
0.000574301
0.00116522
0.00113757
0.000444444
-2.77695e-05
3.19736e-05
0.000140393
-0.000126151
-0.000564273
8.43187e-05
0.00027491
0.000163015
0.000128578
0.000134326
0.000974439
0.00138257
0.00074546
0.000775047
0.00100017
0.000510398
0.000436979
0.00101686
0.00106252
0.000338934
-0.000236514
-0.00021038
-5.27778e-05
-0.000274166
-0.000746504
8.38249e-05
0.000268162
0.000197196
0.00011591
9.96245e-05
0.000931342
0.00139133
0.000762233
0.000699947
0.000944283
0.000484417
0.000302935
0.000845598
0.000973309
0.000253167
-0.000427427
-0.000463232
-0.000266363
-0.000418171
-0.000888658
8.38811e-05
0.000258606
0.000231746
0.000110768
5.49318e-05
0.000879839
0.001401
0.000781183
0.00061992
0.000877936
0.000465742
0.000180171
0.000655561
0.000860765
0.000180756
-0.000592383
-0.000716869
-0.00050004
-0.000572518
-0.00100301
8.49358e-05
0.000245921
0.000264571
0.000115177
2.94046e-06
0.000814668
0.00141031
0.000807607
0.000536479
0.000795569
0.000451291
7.72866e-05
0.000453566
0.000718464
0.000112177
-0.000728005
-0.000961152
-0.000748643
-0.000744181
-0.00110846
8.74196e-05
0.00022999
0.00029337
0.000130167
-5.2158e-05
0.000731944
0.00141492
0.000845226
0.000452249
0.000693575
0.000435717
-1.247e-06
0.000250135
0.000545868
3.53602e-05
-0.000836697
-0.00118682
-0.0010064
-0.00093227
-0.00121955
9.16643e-05
0.000211053
0.000315568
0.000155775
-0.000104517
0.000630093
0.00140704
0.0008949
0.0003752
0.000571611
0.000409669
-5.65498e-05
5.87338e-05
0.000349132
-6.04338e-05
-0.000924693
-0.00138551
-0.00126725
-0.00113509
-0.00134162
9.77196e-05
0.000189857
0.000329071
0.000190984
-0.000148407
0.000510195
0.00137762
0.000954666
0.00031597
0.000433006
0.000362749
-9.30048e-05
-0.000109957
0.000137226
-0.000181385
-0.00100188
-0.00155098
-0.00152139
-0.00135289
-0.0014744
0.000105467
0.000167373
0.000332465
0.000232363
-0.000179168
0.000375088
0.00131919
0.00101886
0.000281773
0.00028313
0.000287925
-0.000118267
-0.000249826
-7.81515e-05
-0.000327647
-0.00108042
-0.00168344
-0.00175521
-0.00158348
-0.00161915
0.000114529
0.000144891
0.000324851
0.000275493
-0.000193236
0.000231618
0.00122633
0.00107796
0.000276563
0.000132572
0.000182791
-0.000145202
-0.00036055
-0.00028401
-0.000493475
-0.00116962
-0.00179116
-0.00195665
-0.00181672
-0.0017795
0.000124306
0.000123818
0.000306096
0.000315355
-0.000188676
8.97293e-05
0.00109737
0.00111837
0.000299418
-4.64805e-06
5.12757e-05
-0.000186314
-0.000446661
-0.000470695
-0.000670505
-0.00127305
-0.00188559
-0.00212176
-0.00203621
-0.0019543
0.000133984
0.000105353
0.000277243
0.000346561
-0.000165433
-4.15127e-05
0.000934507
0.00112729
0.00034527
-0.000116602
-0.000100269
-0.000249567
-0.000515315
-0.00063322
-0.000850472
-0.00139016
-0.00197544
-0.00225578
-0.00222759
-0.0021319
0.000142615
9.02832e-05
0.000240398
0.000364968
-0.000126609
-0.000155162
0.000743742
0.00109634
0.000401823
-0.000195207
-0.000260347
-0.000340332
-0.000576817
-0.000768615
-0.00102452
-0.00151885
-0.0020659
-0.00236767
-0.00238533
-0.00229627
0.000149333
7.8894e-05
0.000198216
0.000367729
-7.85452e-05
-0.000244971
0.000536825
0.00102038
0.000452396
-0.000241201
-0.000412107
-0.000455038
-0.000644361
-0.000879481
-0.00118313
-0.00165452
-0.00216018
-0.00246474
-0.00251283
-0.00243622
0.000153296
7.1025e-05
0.000153992
0.000353312
-2.90661e-05
-0.000308
0.000328556
0.000899169
0.000482399
-0.000259264
-0.00054596
-0.000584038
-0.000723174
-0.000974619
-0.00132131
-0.0017898
-0.00225979
-0.00255189
-0.00261675
-0.00254901
0.000153941
6.60054e-05
0.000110858
0.000322246
1.3768e-05
-0.0003439
0.000131424
0.000736297
0.000479633
-0.000257296
-0.000658227
-0.000721211
-0.000811849
-0.0010591
-0.00143959
-0.00191781
-0.00236451
-0.00263423
-0.00270179
-0.00263848
0.000151012
6.25463e-05
7.07032e-05
0.000276402
4.30584e-05
-0.000357439
-4.61277e-05
0.000544115
0.000436654
-0.000248311
-0.000743342
-0.000860676
-0.000913623
-0.0011343
-0.00153725
-0.00203364
-0.0024723
-0.0027188
-0.00277293
-0.00270889
0.000144367
6.72119e-05
3.43491e-05
0.000219279
5.49873e-05
-0.000356316
-0.000198298
0.000338
0.000354253
-0.000248991
-0.000803948
-0.000990859
-0.00102952
-0.00120777
-0.00161152
-0.00213133
-0.00257845
-0.00281142
-0.00284012
-0.0027627
0.000133777
6.23065e-05
1.65782e-06
0.000155116
4.8306e-05
-0.000349759
-0.000323646
0.000130258
0.000236958
-0.000266256
-0.000850423
-0.00110656
-0.0011518
-0.0012879
-0.00166684
-0.00220306
-0.0026738
-0.00291214
-0.00291551
-0.00280701
0.000119281
5.50377e-05
-2.76712e-05
8.75334e-05
2.37469e-05
-0.000345294
-0.000423735
-6.87609e-05
9.20062e-05
-0.000303341
-0.000887586
-0.00121041
-0.00127484
-0.00137454
-0.00171364
-0.00224648
-0.00274799
-0.00301248
-0.00300531
-0.00285396
0.000100872
4.43752e-05
-5.45933e-05
1.92623e-05
-1.6532e-05
-0.000347538
-0.000504321
-0.000252435
-7.09749e-05
-0.000365222
-0.000918782
-0.00130011
-0.00140049
-0.00146729
-0.00175645
-0.00226749
-0.00279062
-0.00309864
-0.00310497
-0.00291501
7.88046e-05
2.94732e-05
-8.03672e-05
-4.80347e-05
-6.96412e-05
-0.000359296
-0.000571381
-0.000420058
-0.000241584
-0.000451015
-0.000953413
-0.00137164
-0.00152421
-0.00157205
-0.00179836
-0.00227134
-0.00279987
-0.00315327
-0.00319933
-0.00299338
5.32976e-05
9.85805e-06
-0.000106887
-0.000113518
-0.000132583
-0.000382114
-0.000628744
-0.000571551
-0.000414684
-0.000554798
-0.000998218
-0.00142993
-0.00163502
-0.00168889
-0.00184849
-0.00226071
-0.00277867
-0.00316595
-0.00326862
-0.00307814
2.43155e-05
-1.46754e-05
-0.000135011
-0.000176927
-0.000202587
-0.000416436
-0.000680007
-0.000706555
-0.000587495
-0.000673242
-0.00105334
-0.00148249
-0.00172929
-0.00180584
-0.00191456
-0.00224362
-0.00272961
-0.00313646
-0.00329436
-0.00314895
-8.12806e-06
-4.40848e-05
-0.000165513
-0.000238421
-0.000277394
-0.000461805
-0.000728765
-0.000825397
-0.000755948
-0.000805215
-0.00111909
-0.00153176
-0.00180945
-0.00191291
-0.00199261
-0.0022325
-0.00265634
-0.0030666
-0.00326926
-0.00318496
-4.39051e-05
-7.82939e-05
-0.000198908
-0.000298198
-0.000355206
-0.000517228
-0.00077806
-0.000929775
-0.000915858
-0.000948224
-0.00119813
-0.00157913
-0.00187742
-0.00200646
-0.00207231
-0.00223434
-0.00256881
-0.00295715
-0.0031917
-0.00316871
-8.27679e-05
-0.00011716
-0.000235523
-0.000356265
-0.0004346
-0.000581565
-0.000830039
-0.00102205
-0.00106455
-0.00109764
-0.00129268
-0.00162922
-0.00193424
-0.00208615
-0.00214536
-0.0022473
-0.00248031
-0.00281064
-0.00305826
-0.00308855
-0.000124326
-0.000160342
-0.00027574
-0.000412541
-0.000514003
-0.00065355
-0.000886447
-0.00110462
-0.00120026
-0.00124831
-0.00140213
-0.0016876
-0.0019831
-0.00215259
-0.00220775
-0.00226391
-0.00239974
-0.00263805
-0.00286634
-0.00293639
-0.000168101
-0.000207242
-0.000319742
-0.00046724
-0.000591753
-0.000731221
-0.000948705
-0.00118027
-0.00132161
-0.00139534
-0.00152302
-0.00175762
-0.00202889
-0.0022072
-0.00225803
-0.00227506
-0.0023269
-0.00245378
-0.00262109
-0.00270787
-0.000213519
-0.000257028
-0.000367498
-0.000520697
-0.000666306
-0.000812059
-0.00101714
-0.00125212
-0.00142832
-0.00153317
-0.00164989
-0.00183892
-0.00207413
-0.00225111
-0.00229577
-0.0022742
-0.00225486
-0.00227158
-0.00234358
-0.0024119
-0.00025998
-0.000308431
-0.000418512
-0.000573608
-0.000736378
-0.000893177
-0.00109056
-0.00132285
-0.00152237
-0.00165687
-0.00177497
-0.0019281
-0.00211812
-0.00228027
-0.00231758
-0.00225653
-0.00217356
-0.00209986
-0.0020749
-0.00210194
-0.000306878
-0.000360055
-0.000471587
-0.000626478
-0.000801447
-0.000971672
-0.00116638
-0.00139336
-0.00160637
-0.00176453
-0.00188998
-0.00201826
-0.00215863
-0.0022879
-0.00231382
-0.00221877
-0.0020811
-0.00194825
-0.00186295
-0.00185853
-0.000353337
-0.000410701
-0.000525004
-0.000679115
-0.000861811
-0.00104484
-0.00124124
-0.00146254
-0.00168127
-0.00185624
-0.00199014
-0.00210239
-0.00219428
-0.00227133
-0.0022765
-0.00216127
-0.00198958
-0.00182796
-0.00171604
-0.00169387
-0.000398215
-0.000459063
-0.000576725
-0.000730678
-0.000917621
-0.00111103
-0.00131218
-0.00152813
-0.00174586
-0.0019306
-0.00207057
-0.00217798
-0.00223599
-0.00225444
-0.00222108
-0.00208828
-0.00189629
-0.00172158
-0.00160497
-0.00158346
-0.000440233
-0.000503727
-0.000624719
-0.000779461
-0.000968492
-0.00116942
-0.00137609
-0.00158912
-0.00180097
-0.00198477
-0.00212219
-0.00222637
-0.00228016
-0.0022708
-0.00221034
-0.00206751
-0.00185241
-0.00164031
-0.00149122
-0.00145131
-0.000477732
-0.0005431
-0.000666923
-0.000823126
-0.00101316
-0.0012188
-0.00143042
-0.00164295
-0.00184967
-0.00203114
-0.00215804
-0.00223049
-0.00225107
-0.00221202
-0.0021382
-0.0020305
-0.00187669
-0.00171649
-0.00160271
-0.00158012
-0.000509083
-0.00057595
-0.000701593
-0.000859182
-0.00104934
-0.00125651
-0.00147108
-0.00168283
-0.00188396
-0.002063
-0.0021968
-0.00227739
-0.00230206
-0.00225341
-0.00213747
-0.00198082
-0.00178854
-0.00159431
-0.00145439
-0.00142395
-0.000533959
-0.000603784
-0.000732317
-0.000892931
-0.00108508
-0.00129415
-0.00151113
-0.00172476
-0.00192465
-0.00209928
-0.00222952
-0.00230027
-0.00230851
-0.00225054
-0.00212784
-0.00196746
-0.00178716
-0.00161197
-0.00148867
-0.00146879
0.0192987
0.0117605
0.00264971
-0.00369475
-0.00590466
-0.00560887
-0.0047939
-0.00430374
-0.00425888
-0.00439434
-0.00447844
-0.00454179
-0.00468362
-0.00484626
-0.00493723
-0.00503077
-0.00519281
-0.00531521
-0.00535122
-0.00540214
-0.00551446
-0.00564891
-0.00577317
-0.0058713
-0.00596198
-0.00607994
-0.00620776
-0.00631855
-0.00642606
-0.00654743
-0.00668348
-0.0068214
-0.00695991
-0.0071075
-0.0072575
-0.00740662
-0.00755359
-0.00769923
-0.00784756
-0.00799558
-0.00814695
-0.00831244
-0.00848813
-0.00867753
-0.00888431
-0.00908369
-0.00926772
-0.00946221
-0.00966241
-0.00984934
-0.0100298
-0.010189
-0.0103371
-0.0105206
-0.010743
-0.0109664
-0.011175
-0.0113762
-0.0115931
-0.0118138
-0.012002
-0.0121841
-0.012391
-0.0125948
-0.0127719
-0.0129551
-0.0131512
-0.0133419
-0.0135277
-0.0137181
-0.0139129
-0.0141045
-0.0143009
-0.0144988
-0.0146993
-0.0149033
-0.0151089
-0.0153189
-0.0155271
-0.0157435
-0.01596
-0.0161849
-0.0164123
-0.0166442
-0.0168777
-0.0171127
-0.0173535
-0.0175972
-0.0178496
-0.0181033
-0.0183663
-0.0186282
-0.0188981
-0.0191676
-0.0194414
-0.0197204
-0.0199911
-0.0202749
-0.0205267
-0.0207662
0.0181505
0.0115941
0.00273822
-0.0035583
-0.00581908
-0.00556621
-0.00476737
-0.00428541
-0.00424586
-0.00438458
-0.0044704
-0.00453472
-0.00467747
-0.00484099
-0.00493247
-0.00502639
-0.00518904
-0.00531202
-0.00534826
-0.00539933
-0.00551191
-0.00564662
-0.00577112
-0.00586944
-0.00596022
-0.00607829
-0.00620625
-0.00631713
-0.0064247
-0.00654613
-0.00668223
-0.00682022
-0.00695876
-0.0071064
-0.00725645
-0.00740561
-0.00755263
-0.00769831
-0.00784668
-0.00799475
-0.00814614
-0.00831167
-0.00848739
-0.00867681
-0.00888364
-0.00908308
-0.00926713
-0.00946165
-0.00966189
-0.00984885
-0.0100293
-0.0101886
-0.0103368
-0.0105202
-0.0107427
-0.0109661
-0.0111747
-0.011376
-0.0115929
-0.0118136
-0.0120018
-0.012184
-0.0123908
-0.0125947
-0.0127718
-0.0129549
-0.0131511
-0.0133418
-0.0135277
-0.013718
-0.0139129
-0.0141044
-0.0143008
-0.0144987
-0.0146992
-0.0149033
-0.0151089
-0.0153188
-0.0155271
-0.0157435
-0.01596
-0.0161849
-0.0164123
-0.0166442
-0.0168776
-0.0171127
-0.0173535
-0.0175972
-0.0178496
-0.0181033
-0.0183663
-0.0186282
-0.0188981
-0.0191676
-0.0194414
-0.0197204
-0.0199911
-0.0202749
-0.0205266
-0.0207662
0.0171796
0.0114723
0.00294083
-0.00329414
-0.00567212
-0.00551068
-0.00473948
-0.00426424
-0.00422897
-0.00437139
-0.0044601
-0.00452651
-0.00467082
-0.00483547
-0.0049276
-0.00502195
-0.0051852
-0.00530872
-0.00534527
-0.00539662
-0.00550949
-0.00564442
-0.00576915
-0.00586767
-0.00595858
-0.00607679
-0.0062049
-0.00631586
-0.0064235
-0.00654498
-0.00668115
-0.0068192
-0.00695777
-0.00710545
-0.00725554
-0.00740475
-0.00755179
-0.00769751
-0.00784591
-0.00799401
-0.00814543
-0.00831099
-0.00848673
-0.00867618
-0.00888306
-0.00908254
-0.00926661
-0.00946115
-0.00966143
-0.00984843
-0.010029
-0.0101882
-0.0103364
-0.0105198
-0.0107424
-0.0109658
-0.0111745
-0.0113757
-0.0115927
-0.0118135
-0.0120017
-0.0121838
-0.0123907
-0.0125946
-0.0127717
-0.0129548
-0.013151
-0.0133417
-0.0135276
-0.0137179
-0.0139128
-0.0141044
-0.0143008
-0.0144987
-0.0146992
-0.0149033
-0.0151088
-0.0153188
-0.015527
-0.0157435
-0.01596
-0.0161849
-0.0164123
-0.0166442
-0.0168776
-0.0171127
-0.0173535
-0.0175972
-0.0178496
-0.0181033
-0.0183663
-0.0186282
-0.0188981
-0.0191676
-0.0194414
-0.0197204
-0.0199911
-0.0202749
-0.0205267
-0.0207662
0.0162983
0.01134
0.00318745
-0.00296701
-0.00547648
-0.00543508
-0.00470006
-0.00423296
-0.0042034
-0.00435115
-0.00444472
-0.00451497
-0.00466162
-0.00482783
-0.0049212
-0.00501628
-0.00517994
-0.00530399
-0.00534129
-0.00539333
-0.00550653
-0.00564157
-0.00576654
-0.00586542
-0.00595662
-0.00607505
-0.00620332
-0.00631442
-0.00642218
-0.00654376
-0.00668001
-0.00681812
-0.00695676
-0.0071045
-0.00725464
-0.00740387
-0.00755094
-0.00769667
-0.0078451
-0.00799324
-0.00814469
-0.00831028
-0.00848605
-0.00867551
-0.00888244
-0.00908198
-0.00926606
-0.00946064
-0.00966096
-0.00984796
-0.0100285
-0.0101878
-0.010336
-0.0105194
-0.010742
-0.0109655
-0.0111742
-0.0113755
-0.0115924
-0.0118133
-0.0120015
-0.0121836
-0.0123905
-0.0125945
-0.0127716
-0.0129547
-0.0131509
-0.0133416
-0.0135275
-0.0137178
-0.0139127
-0.0141043
-0.0143007
-0.0144987
-0.0146992
-0.0149032
-0.0151088
-0.0153188
-0.015527
-0.0157434
-0.0159599
-0.0161848
-0.0164123
-0.0166442
-0.0168776
-0.0171127
-0.0173535
-0.0175972
-0.0178496
-0.0181033
-0.0183663
-0.0186282
-0.0188981
-0.0191676
-0.0194414
-0.0197204
-0.0199911
-0.0202749
-0.0205267
-0.0207662
0.0154241
0.0111577
0.00343074
-0.00262653
-0.00526478
-0.00535134
-0.00465557
-0.00419504
-0.00417007
-0.00432344
-0.00442332
-0.00449902
-0.00464866
-0.00481679
-0.00491228
-0.00500867
-0.00517246
-0.00529695
-0.0053357
-0.0053891
-0.00550269
-0.00563761
-0.00576276
-0.00586225
-0.00595402
-0.00607277
-0.00620123
-0.00631255
-0.00642056
-0.00654231
-0.00667865
-0.00681687
-0.00695562
-0.00710347
-0.00725367
-0.00740293
-0.00755003
-0.00769577
-0.0078442
-0.00799236
-0.00814385
-0.00830949
-0.00848528
-0.00867473
-0.00888169
-0.0090813
-0.00926544
-0.00946006
-0.0096604
-0.00984739
-0.010028
-0.0101873
-0.0103355
-0.0105189
-0.0107415
-0.0109651
-0.0111738
-0.0113752
-0.0115921
-0.011813
-0.0120012
-0.0121834
-0.0123903
-0.0125943
-0.0127714
-0.0129546
-0.0131508
-0.0133415
-0.0135274
-0.0137177
-0.0139126
-0.0141042
-0.0143007
-0.0144986
-0.0146991
-0.0149032
-0.0151088
-0.0153188
-0.015527
-0.0157434
-0.0159599
-0.0161848
-0.0164123
-0.0166442
-0.0168776
-0.0171127
-0.0173534
-0.0175972
-0.0178496
-0.0181033
-0.0183663
-0.0186282
-0.0188981
-0.0191676
-0.0194414
-0.0197204
-0.0199911
-0.0202749
-0.0205267
-0.0207663
0.0145562
0.0109237
0.00366266
-0.00228167
-0.00504383
-0.00526388
-0.00461106
-0.00415535
-0.00413285
-0.00429121
-0.00439791
-0.00447974
-0.00463247
-0.00480251
-0.00490076
-0.00499895
-0.0051626
-0.00528745
-0.00532834
-0.00538382
-0.00549789
-0.00563239
-0.00575761
-0.00585797
-0.00595065
-0.0060698
-0.00619846
-0.00631014
-0.00641858
-0.00654054
-0.00667696
-0.0068153
-0.00695425
-0.00710229
-0.00725258
-0.00740191
-0.00754906
-0.00769479
-0.0078432
-0.00799136
-0.00814289
-0.00830858
-0.00848439
-0.0086738
-0.00888075
-0.00908044
-0.0092647
-0.00945941
-0.00965974
-0.00984665
-0.0100273
-0.0101867
-0.0103349
-0.0105183
-0.0107409
-0.0109645
-0.0111734
-0.0113747
-0.0115917
-0.0118126
-0.0120009
-0.012183
-0.01239
-0.012594
-0.0127712
-0.0129543
-0.0131506
-0.0133413
-0.0135272
-0.0137176
-0.0139125
-0.0141041
-0.0143006
-0.0144985
-0.014699
-0.0149031
-0.0151087
-0.0153187
-0.0155269
-0.0157434
-0.0159599
-0.0161848
-0.0164123
-0.0166441
-0.0168776
-0.0171126
-0.0173534
-0.0175971
-0.0178496
-0.0181033
-0.0183662
-0.0186282
-0.0188981
-0.0191676
-0.0194414
-0.0197204
-0.0199911
-0.020275
-0.0205268
-0.0207664
0.0137031
0.0106438
0.00388231
-0.00193189
-0.0048124
-0.00517202
-0.00456726
-0.00411544
-0.00409343
-0.0042563
-0.00437013
-0.00445844
-0.00461423
-0.00478606
-0.00488729
-0.0049875
-0.00515084
-0.00527604
-0.00531959
-0.00537765
-0.00549224
-0.00562605
-0.00575121
-0.00585265
-0.00594653
-0.00606614
-0.00619497
-0.00630717
-0.00641623
-0.00653847
-0.0066749
-0.00681333
-0.00695253
-0.00710081
-0.00725128
-0.00740074
-0.00754799
-0.00769374
-0.00784211
-0.00799026
-0.00814183
-0.00830758
-0.00848337
-0.00867265
-0.00887952
-0.0090793
-0.00926379
-0.00945866
-0.00965896
-0.00984574
-0.0100263
-0.0101859
-0.0103341
-0.0105175
-0.01074
-0.0109637
-0.0111727
-0.0113741
-0.0115911
-0.011812
-0.0120004
-0.0121826
-0.0123896
-0.0125936
-0.0127708
-0.012954
-0.0131503
-0.0133411
-0.013527
-0.0137174
-0.0139123
-0.0141039
-0.0143004
-0.0144984
-0.0146989
-0.014903
-0.0151086
-0.0153186
-0.0155269
-0.0157433
-0.0159598
-0.0161847
-0.0164122
-0.0166441
-0.0168776
-0.0171126
-0.0173534
-0.0175971
-0.0178496
-0.0181033
-0.0183662
-0.0186282
-0.0188981
-0.0191676
-0.0194414
-0.0197204
-0.0199911
-0.020275
-0.0205269
-0.0207665
0.0128737
0.0103222
0.00408607
-0.00157784
-0.00456911
-0.00507423
-0.00452383
-0.00407581
-0.00405237
-0.00421918
-0.00434045
-0.00443566
-0.00459467
-0.00476823
-0.00487248
-0.00497481
-0.0051378
-0.00526339
-0.00530989
-0.00537082
-0.00548593
-0.00561888
-0.00574389
-0.00584657
-0.00594184
-0.00606191
-0.00619087
-0.00630369
-0.00641358
-0.00653619
-0.00667256
-0.00681099
-0.00695041
-0.00709894
-0.0072496
-0.00739928
-0.00754673
-0.00769257
-0.00784093
-0.00798909
-0.00814073
-0.00830655
-0.00848227
-0.00867131
-0.00887795
-0.00907779
-0.0092626
-0.00945773
-0.00965801
-0.00984462
-0.0100252
-0.0101849
-0.0103333
-0.0105165
-0.0107388
-0.0109625
-0.0111718
-0.0113733
-0.0115902
-0.0118111
-0.0119996
-0.0121819
-0.012389
-0.012593
-0.0127703
-0.0129535
-0.0131499
-0.0133407
-0.0135266
-0.0137171
-0.0139121
-0.0141037
-0.0143002
-0.0144982
-0.0146987
-0.0149029
-0.0151085
-0.0153185
-0.0155267
-0.0157432
-0.0159597
-0.0161847
-0.0164122
-0.016644
-0.0168775
-0.0171126
-0.0173534
-0.0175971
-0.0178495
-0.0181032
-0.0183662
-0.0186282
-0.0188981
-0.0191676
-0.0194414
-0.0197204
-0.0199911
-0.0202751
-0.0205271
-0.0207666
0.0120765
0.00996165
0.00426737
-0.001222
-0.0043128
-0.00496853
-0.00448012
-0.0040369
-0.00401007
-0.0041799
-0.0043089
-0.00441156
-0.00457407
-0.00474936
-0.00485664
-0.00496122
-0.00512392
-0.00524993
-0.00529953
-0.00536347
-0.00547913
-0.00561114
-0.00573597
-0.00583998
-0.00593675
-0.00605729
-0.00618633
-0.00629984
-0.00641071
-0.00653379
-0.00667009
-0.00680844
-0.00694798
-0.00709667
-0.00724748
-0.0073974
-0.00754516
-0.00769119
-0.0078396
-0.00798784
-0.00813961
-0.00830554
-0.00848118
-0.00866985
-0.00887607
-0.00907588
-0.00926106
-0.00945649
-0.00965678
-0.00984323
-0.0100238
-0.0101838
-0.0103324
-0.0105154
-0.0107373
-0.010961
-0.0111705
-0.0113722
-0.011589
-0.0118098
-0.0119985
-0.012181
-0.0123882
-0.0125922
-0.0127695
-0.0129529
-0.0131493
-0.0133401
-0.0135262
-0.0137166
-0.0139117
-0.0141033
-0.0142999
-0.0144979
-0.0146985
-0.0149026
-0.0151083
-0.0153183
-0.0155266
-0.0157431
-0.0159596
-0.0161845
-0.0164121
-0.016644
-0.0168774
-0.0171125
-0.0173533
-0.017597
-0.0178495
-0.0181032
-0.0183662
-0.0186282
-0.0188981
-0.0191676
-0.0194413
-0.0197204
-0.0199911
-0.0202751
-0.0205273
-0.0207668
0.0113192
0.00956665
0.00441978
-0.000866787
-0.00404203
-0.00485272
-0.00443551
-0.00399939
-0.00396714
-0.00413858
-0.00427542
-0.00438613
-0.00455248
-0.00472954