/*--------------------------------*- C++ -*----------------------------------*\
| =========                 |                                                 |
| \\      /  F ield         | OpenFOAM: The Open Source CFD Toolbox           |
|  \\    /   O peration     | Version:  2106                                  |
|   \\  /    A nd           | Website:  www.openfoam.com                      |
|    \\/     M anipulation  |                                                 |
\*---------------------------------------------------------------------------*/
FoamFile
{
    version     2.0;
    format      ascii;
    arch        "LSB;label=32;scalar=64";
    class       surfaceScalarField;
    location    "0.765";
    object      phi;
}
// * * * * * * * * * * * * * * * * * * * * * * * * * * * * * * * * * * * * * //

dimensions      [0 3 -1 0 0 0 0];

oriented        oriented;

internalField   nonuniform List<scalar> 
19000
(
1.1662e-06
-7.82796e-07
1.18339e-06
8.71203e-07
1.19542e-06
-2.94754e-07
1.19207e-06
8.04812e-08
1.18819e-06
7.32701e-08
1.19067e-06
-3.65919e-07
1.21713e-06
-1.08017e-07
1.18307e-06
-4.65968e-07
1.20043e-06
3.25593e-07
1.17252e-06
2.11302e-07
1.17351e-06
1.0858e-07
1.17583e-06
1.942e-07
1.16762e-06
1.80697e-08
1.17098e-06
3.6365e-08
1.17967e-06
-1.19362e-07
1.17604e-06
-7.22872e-08
1.18636e-06
-1.16217e-07
1.17264e-06
-2.34022e-07
1.18603e-06
-3.18235e-08
-2.88696e-07
1.13291e-06
1.22583e-06
-7.84368e-07
1.24685e-06
8.5019e-07
1.25717e-06
-3.05075e-07
1.25494e-06
8.27081e-08
1.24729e-06
8.09191e-08
1.24946e-06
-3.68084e-07
1.27338e-06
-1.31937e-07
1.24166e-06
-4.34249e-07
1.25283e-06
3.14421e-07
1.23557e-06
2.28564e-07
1.22759e-06
1.16557e-07
1.24011e-06
1.81675e-07
1.22374e-06
3.44469e-08
1.23647e-06
2.36361e-08
1.23209e-06
-1.1499e-07
1.2439e-06
-8.40951e-08
1.23465e-06
-1.06969e-07
1.24152e-06
-2.40886e-07
1.22916e-06
-1.94668e-08
-2.75166e-07
1.21563e-06
1.28689e-06
-7.88471e-07
1.31508e-06
8.21999e-07
1.31899e-06
-3.08991e-07
1.32148e-06
8.02206e-08
1.30894e-06
9.34601e-08
1.3108e-06
-3.69941e-07
1.32949e-06
-1.50633e-07
1.30599e-06
-4.10745e-07
1.30948e-06
3.10931e-07
1.30493e-06
2.33111e-07
1.28874e-06
1.32745e-07
1.30431e-06
1.66112e-07
1.28748e-06
5.127e-08
1.2978e-06
1.3325e-08
1.29135e-06
-1.0854e-07
1.30041e-06
-9.31626e-08
1.29342e-06
-9.99778e-08
1.29497e-06
-2.42437e-07
1.2942e-06
-1.86938e-08
-2.55534e-07
1.27457e-06
1.34931e-06
-7.93675e-07
1.38239e-06
7.88913e-07
1.37845e-06
-3.0505e-07
1.38565e-06
7.30224e-08
1.36999e-06
1.09124e-07
1.37138e-06
-3.71337e-07
1.38378e-06
-1.63034e-07
1.37166e-06
-3.98625e-07
1.37329e-06
3.093e-07
1.37539e-06
2.31019e-07
1.35878e-06
1.49354e-07
1.36839e-06
1.56499e-07
1.35731e-06
6.23534e-08
1.36028e-06
1.03551e-08
1.35449e-06
-1.02755e-07
1.35854e-06
-9.72088e-08
1.35348e-06
-9.49186e-08
1.35118e-06
-2.40141e-07
1.35279e-06
-2.02967e-08
-2.34375e-07
1.33163e-06
1.41306e-06
-7.98385e-07
1.44711e-06
7.54872e-07
1.43625e-06
-2.94194e-07
1.44572e-06
6.3554e-08
1.43021e-06
1.24628e-07
1.43043e-06
-3.7155e-07
1.43706e-06
-1.69668e-07
1.43533e-06
-3.96893e-07
1.44183e-06
3.02795e-07
1.44507e-06
2.27786e-07
1.43275e-06
1.6167e-07
1.43536e-06
1.53892e-07
1.42801e-06
6.97035e-08
1.42649e-06
1.18705e-08
1.41912e-06
-9.53865e-08
1.42027e-06
-9.83531e-08
1.41484e-06
-8.94897e-08
1.41016e-06
-2.35458e-07
1.41202e-06
-2.21636e-08
-2.12374e-07
1.39002e-06
1.47871e-06
-8.0142e-07
1.51014e-06
7.23444e-07
1.49503e-06
-2.79086e-07
1.50384e-06
5.47421e-08
1.49139e-06
1.37077e-07
1.49003e-06
-3.70182e-07
1.49203e-06
-1.71675e-07
1.49731e-06
-4.02168e-07
1.51081e-06
2.89289e-07
1.51362e-06
2.24983e-07
1.50567e-06
1.69615e-07
1.50419e-06
1.55371e-07
1.49773e-06
7.61695e-08
1.49444e-06
1.51589e-08
1.4855e-06
-8.64492e-08
1.48453e-06
-9.73822e-08
1.47887e-06
-8.38302e-08
1.4719e-06
-2.28486e-07
1.4742e-06
-2.4467e-08
-1.89512e-07
1.45134e-06
1.54698e-06
-8.02188e-07
1.57384e-06
6.96589e-07
1.55743e-06
-2.6268e-07
1.56386e-06
4.83157e-08
1.55574e-06
1.45202e-07
1.5531e-06
-3.67547e-07
1.5516e-06
-1.70173e-07
1.55991e-06
-4.10482e-07
1.57824e-06
2.70963e-07
1.58116e-06
2.22067e-07
1.5763e-06
1.74467e-07
1.57343e-06
1.58242e-07
1.56726e-06
8.23414e-08
1.56362e-06
1.87981e-08
1.55434e-06
-7.71651e-08
1.55196e-06
-9.50052e-08
1.5466e-06
-7.84751e-08
1.53758e-06
-2.19462e-07
1.54024e-06
-2.71294e-08
-1.66177e-07
1.51691e-06
1.61849e-06
-8.00552e-07
1.64053e-06
6.74551e-07
1.625e-06
-2.47147e-07
1.62891e-06
4.44033e-08
1.62489e-06
1.49226e-07
1.6216e-06
-3.64264e-07
1.61757e-06
-1.6614e-07
1.62552e-06
-4.18435e-07
1.64516e-06
2.51322e-07
1.64876e-06
2.18466e-07
1.64615e-06
1.77078e-07
1.64348e-06
1.6092e-07
1.63816e-06
8.76564e-08
1.63505e-06
2.19137e-08
1.62645e-06
-6.85671e-08
1.62338e-06
-9.19398e-08
1.61879e-06
-7.38812e-08
1.60805e-06
-2.08728e-07
1.61089e-06
-2.99642e-08
-1.4287e-07
1.58758e-06
1.69365e-06
-7.96625e-07
1.71168e-06
6.56514e-07
1.69814e-06
-2.33601e-07
1.7004e-06
4.21391e-08
1.69955e-06
1.50078e-07
1.69606e-06
-3.60773e-07
1.69034e-06
-1.60426e-07
1.69569e-06
-4.23782e-07
1.71395e-06
2.33068e-07
1.71826e-06
2.1415e-07
1.71746e-06
1.77877e-07
1.71578e-06
1.62608e-07
1.71188e-06
9.15495e-08
1.70973e-06
2.40683e-08
1.70244e-06
-6.12809e-08
1.6991e-06
-8.85979e-08
1.69556e-06
-7.03464e-08
1.6835e-06
-1.96668e-07
1.6863e-06
-3.27587e-08
-1.20134e-07
1.66356e-06
1.77272e-06
-7.9062e-07
1.7879e-06
6.41325e-07
1.77662e-06
-2.22316e-07
1.77827e-06
4.04897e-08
1.77959e-06
1.48757e-07
1.77603e-06
-3.57212e-07
1.76935e-06
-1.53744e-07
1.77108e-06
-4.25512e-07
1.78662e-06
2.17528e-07
1.79141e-06
2.09355e-07
1.7921e-06
1.77192e-07
1.79167e-06
1.63032e-07
1.78945e-06
9.37742e-08
1.78824e-06
2.52769e-08
1.78255e-06
-5.55899e-08
1.77905e-06
-8.51033e-08
1.77665e-06
-6.79462e-08
1.76368e-06
-1.83693e-07
1.76619e-06
-3.52676e-08
-9.85375e-08
1.74459e-06
1.85591e-06
-7.82783e-07
1.86932e-06
6.27918e-07
1.86005e-06
-2.13047e-07
1.86179e-06
3.87448e-08
1.86446e-06
1.46087e-07
1.8608e-06
-3.53551e-07
1.85372e-06
-1.46663e-07
1.85177e-06
-4.23557e-07
1.86435e-06
2.04944e-07
1.86942e-06
2.04283e-07
1.87128e-06
1.75333e-07
1.87203e-06
1.62283e-07
1.87147e-06
9.43401e-08
1.87089e-06
2.58563e-08
1.8668e-06
-5.14991e-08
1.86313e-06
-8.14366e-08
1.86173e-06
-6.6546e-08
1.84826e-06
-1.70229e-07
1.85018e-06
-3.71876e-08
-7.86344e-08
1.83028e-06
1.94342e-06
-7.73363e-07
1.95591e-06
6.1543e-07
1.94814e-06
-2.05278e-07
1.95029e-06
3.659e-08
1.95369e-06
1.42688e-07
1.94989e-06
-3.49747e-07
1.94281e-06
-1.39585e-07
1.93766e-06
-4.18404e-07
1.94766e-06
1.94939e-07
1.95292e-06
1.99024e-07
1.95571e-06
1.7254e-07
1.95732e-06
1.60676e-07
1.95828e-06
9.33797e-08
1.9579e-06
2.62339e-08
1.95523e-06
-4.88296e-08
1.95134e-06
-7.75418e-08
1.95063e-06
-6.58347e-08
1.93709e-06
-1.56693e-07
1.93809e-06
-3.81882e-08
-6.08618e-08
1.92032e-06
2.03541e-06
-7.62587e-07
2.04766e-06
6.03187e-07
2.04078e-06
-1.984e-07
2.04341e-06
3.39549e-08
2.04708e-06
1.39022e-07
2.04314e-06
-3.45804e-07
2.03628e-06
-1.3273e-07
2.02865e-06
-4.10773e-07
2.03673e-06
1.86864e-07
2.04212e-06
1.93627e-07
2.04573e-06
1.68935e-07
2.04779e-06
1.58616e-07
2.0501e-06
9.10654e-08
2.04955e-06
2.67912e-08
2.04801e-06
-4.72905e-08
2.04387e-06
-7.34006e-08
2.04341e-06
-6.53743e-08
2.03019e-06
-1.4348e-07
2.03e-06
-3.80004e-08
-4.5426e-08
2.01457e-06
2.13207e-06
-7.50652e-07
2.14458e-06
5.90674e-07
2.13801e-06
-1.91833e-07
2.14112e-06
3.08414e-08
2.14472e-06
1.35425e-07
2.14069e-06
-3.41772e-07
2.13412e-06
-1.26162e-07
2.12474e-06
-4.01393e-07
2.13161e-06
1.8e-07
2.13705e-06
1.88179e-07
2.14145e-06
1.64538e-07
2.14357e-06
1.56494e-07
2.14705e-06
8.75858e-08
2.14608e-06
2.77684e-08
2.14531e-06
-4.65275e-08
2.14099e-06
-6.90776e-08
2.14029e-06
-6.4673e-08
2.12774e-06
-1.30928e-07
2.12627e-06
-3.65354e-08
-3.22335e-08
2.11308e-06
2.23354e-06
-7.37706e-07
2.2467e-06
5.77516e-07
2.23997e-06
-1.85099e-07
2.24358e-06
2.72301e-08
2.24687e-06
1.32136e-07
2.24281e-06
-3.37717e-07
2.23649e-06
-1.19834e-07
2.22595e-06
-3.90861e-07
2.23227e-06
1.73681e-07
2.23763e-06
1.8282e-07
2.24286e-06
1.59313e-07
2.24473e-06
1.5462e-07
2.24918e-06
8.31391e-08
2.24771e-06
2.92348e-08
2.24734e-06
-4.61562e-08
2.24299e-06
-6.47324e-08
2.24158e-06
-6.326e-08
2.22994e-06
-1.19285e-07
2.22734e-06
-3.39419e-08
-2.09197e-08
2.21603e-06
2.34002e-06
-7.23853e-07
2.35408e-06
5.63461e-07
2.34683e-06
-1.7785e-07
2.351e-06
2.30639e-08
2.35382e-06
1.29311e-07
2.3498e-06
-3.33698e-07
2.34364e-06
-1.1367e-07
2.33235e-06
-3.79578e-07
2.33866e-06
1.67374e-07
2.34376e-06
1.77726e-07
2.34986e-06
1.53209e-07
2.35129e-06
1.53189e-07
2.3565e-06
7.79295e-08
2.35463e-06
3.11073e-08
2.35426e-06
-4.57872e-08
2.35013e-06
-6.06019e-08
2.34763e-06
-6.07588e-08
2.33701e-06
-1.08667e-07
2.33358e-06
-3.05187e-08
-1.10272e-08
2.32369e-06
2.4517e-06
-7.09155e-07
2.4668e-06
5.48352e-07
2.45881e-06
-1.69854e-07
2.4636e-06
1.82701e-08
2.46588e-06
1.27036e-07
2.46193e-06
-3.29751e-07
2.45587e-06
-1.07607e-07
2.44405e-06
-3.67758e-07
2.45072e-06
1.60701e-07
2.45538e-06
1.73064e-07
2.46239e-06
1.46197e-07
2.4633e-06
1.52284e-07
2.46905e-06
7.21756e-08
2.46699e-06
3.31713e-08
2.46623e-06
-4.50336e-08
2.46258e-06
-5.69505e-08
2.45879e-06
-5.69686e-08
2.44911e-06
-9.89856e-08
2.44528e-06
-2.66846e-08
-2.12729e-09
2.43638e-06
2.56878e-06
-6.93638e-07
2.58503e-06
5.32102e-07
2.57615e-06
-1.60972e-07
2.58163e-06
1.27859e-08
2.58332e-06
1.2535e-07
2.57945e-06
-3.25885e-07
2.57347e-06
-1.01631e-07
2.56118e-06
-3.55466e-07
2.56845e-06
1.53429e-07
2.57255e-06
1.68974e-07
2.58046e-06
1.3828e-07
2.58087e-06
1.51879e-07
2.58692e-06
6.61207e-08
2.58497e-06
3.51226e-08
2.58346e-06
-4.35269e-08
2.58051e-06
-5.40011e-08
2.5755e-06
-5.19531e-08
2.56641e-06
-8.98917e-08
2.56264e-06
-2.29211e-08
6.07634e-09
2.55444e-06
2.6915e-06
-6.7731e-07
2.70894e-06
5.1466e-07
2.6991e-06
-1.51125e-07
2.70531e-06
6.57191e-09
2.7064e-06
1.24256e-07
2.70261e-06
-3.22086e-07
2.69675e-06
-9.57744e-08
2.68396e-06
-3.42677e-07
2.69197e-06
1.45418e-07
2.69538e-06
1.65561e-07
2.70416e-06
1.29501e-07
2.70419e-06
1.51854e-07
2.71026e-06
6.00493e-08
2.70878e-06
3.66039e-08
2.70619e-06
-4.09397e-08
2.70405e-06
-5.18557e-08
2.69813e-06
-4.60387e-08
2.68911e-06
-8.08688e-08
2.68584e-06
-1.96557e-08
1.36858e-08
2.67823e-06
2.82013e-06
-6.6017e-07
2.83879e-06
4.96003e-07
2.82794e-06
-1.4028e-07
2.8349e-06
-3.83027e-10
2.83542e-06
1.23734e-07
2.83164e-06
-3.18309e-07
2.82598e-06
-9.01151e-08
2.81262e-06
-3.29315e-07
2.82146e-06
1.36581e-07
2.82412e-06
1.62894e-07
2.83367e-06
1.1995e-07
2.83352e-06
1.52007e-07
2.83928e-06
5.42901e-08
2.83862e-06
3.72629e-08
2.83473e-06
-3.7046e-08
2.83331e-06
-5.04378e-08
2.82698e-06
-3.97065e-08
2.81758e-06
-7.14737e-08
2.81499e-06
-1.70631e-08
2.05715e-08
2.8081e-06
2.95494e-06
-6.42215e-07
2.97482e-06
4.76122e-07
2.96297e-06
-1.2843e-07
2.97065e-06
-8.06253e-09
2.97064e-06
1.23742e-07
2.96682e-06
-3.14481e-07
2.96147e-06
-8.47673e-08
2.94744e-06
-3.15283e-07
2.95715e-06
1.26862e-07
2.95906e-06
1.60992e-07
2.96922e-06
1.09785e-07
2.96917e-06
1.52062e-07
2.97426e-06
4.91949e-08
2.97469e-06
3.68297e-08
2.96948e-06
-3.18293e-08
2.96847e-06
-4.94294e-08
2.96226e-06
-3.35012e-08
2.95226e-06
-6.14706e-08
2.95023e-06
-1.50317e-08
2.64739e-08
2.94433e-06
3.09624e-06
-6.23444e-07
3.11734e-06
4.55022e-07
3.1045e-06
-1.15596e-07
3.11286e-06
-1.64223e-08
3.11239e-06
1.24216e-07
3.1084e-06
-3.10495e-07
3.10351e-06
-7.98783e-08
3.08871e-06
-3.0048e-07
3.09934e-06
1.16233e-07
3.10053e-06
1.59804e-07
3.11106e-06
9.92459e-08
3.11145e-06
1.51678e-07
3.11552e-06
4.51224e-08
3.1172e-06
3.51449e-08
3.11084e-06
-2.54611e-08
3.10976e-06
-4.83496e-08
3.10418e-06
-2.79252e-08
3.0936e-06
-5.08853e-08
3.09175e-06
-1.3183e-08
3.10764e-08
3.08714e-06
3.24433e-06
-6.03864e-07
3.26663e-06
4.32724e-07
3.25286e-06
-1.01825e-07
3.26182e-06
-2.5388e-08
3.26097e-06
1.25067e-07
3.25669e-06
-3.06209e-07
3.25243e-06
-7.562e-08
3.23676e-06
-2.84812e-07
3.24829e-06
1.04705e-07
3.2489e-06
1.59196e-07
3.25949e-06
8.86508e-08
3.26068e-06
1.50488e-07
3.26342e-06
4.23802e-08
3.26636e-06
3.2207e-08
3.25917e-06
-1.82721e-08
3.2575e-06
-4.66769e-08
3.25289e-06
-2.3312e-08
3.242e-06
-3.99945e-08
3.23983e-06
-1.10209e-08
3.41591e-08
3.23675e-06
3.39956e-06
-5.83489e-07
3.42301e-06
4.09267e-07
3.40838e-06
-8.71924e-08
3.41785e-06
-3.48524e-08
3.41674e-06
1.26175e-07
3.41198e-06
-3.01453e-07
3.40854e-06
-7.21806e-08
3.39194e-06
-2.68206e-07
3.40429e-06
9.23509e-08
3.40454e-06
1.58947e-07
3.41482e-06
7.83699e-08
3.41717e-06
1.48138e-07
3.41837e-06
4.11853e-08
3.4224e-06
2.81756e-08
3.41481e-06
-1.0688e-08
3.41211e-06
-4.3971e-08
3.40859e-06
-1.97924e-08
3.39779e-06
-2.92021e-08
3.3949e-06
-8.12675e-09
3.57299e-08
3.39333e-06
3.56227e-06
-5.62343e-07
3.58682e-06
3.84707e-07
3.57144e-06
-7.1809e-08
3.58126e-06
-4.46708e-08
3.58004e-06
1.27391e-07
3.57462e-06
-2.96028e-07
3.57219e-06
-6.97541e-08
3.55461e-06
-2.50628e-07
3.56765e-06
7.93138e-08
3.56784e-06
1.58759e-07
3.57741e-06
6.87977e-08
3.58119e-06
1.44361e-07
3.58078e-06
4.15923e-08
3.58556e-06
2.33948e-08
3.57806e-06
-3.18791e-09
3.57403e-06
-3.99411e-08
3.57151e-06
-1.72753e-08
3.56131e-06
-1.89979e-08
3.55742e-06
-4.24014e-09
3.6057e-08
3.5571e-06
3.73282e-06
-5.40461e-07
3.7584e-06
3.59128e-07
3.74242e-06
-5.58246e-08
3.7524e-06
-5.46564e-08
3.75126e-06
1.28537e-07
3.74494e-06
-2.89709e-07
3.74372e-06
-6.85335e-08
3.72519e-06
-2.32097e-07
3.73868e-06
6.58224e-08
3.73916e-06
1.58274e-07
3.74765e-06
6.03141e-08
3.75299e-06
1.39016e-07
3.75112e-06
4.347e-08
3.75614e-06
1.8372e-08
3.74921e-06
3.74458e-09
3.74376e-06
-3.44962e-08
3.74197e-06
-1.54837e-08
3.73281e-06
-9.84087e-09
3.72791e-06
6.58756e-10
3.56296e-08
3.72834e-06
3.91162e-06
-5.1789e-07
3.93811e-06
3.32637e-07
3.92172e-06
-3.94381e-08
3.93164e-06
-6.45741e-08
3.93077e-06
1.29409e-07
3.92333e-06
-2.82271e-07
3.92347e-06
-6.86701e-08
3.90409e-06
-2.12717e-07
3.91773e-06
5.21765e-08
3.91887e-06
1.57133e-07
3.92596e-06
5.32226e-08
3.93285e-06
1.32135e-07
3.92979e-06
4.65298e-08
3.93449e-06
1.36701e-08
3.92854e-06
9.69253e-09
3.92178e-06
-2.77333e-08
3.92032e-06
-1.4031e-08
3.91256e-06
-2.0726e-09
3.90685e-06
6.36768e-09
3.5019e-08
3.90746e-06
4.09905e-06
-4.94691e-07
4.12632e-06
3.05371e-07
4.10978e-06
-2.29033e-08
4.11935e-06
-7.41395e-08
4.11897e-06
1.29786e-07
4.11019e-06
-2.73493e-07
4.11177e-06
-7.02459e-08
4.09175e-06
-1.927e-07
4.10519e-06
3.87397e-08
4.10732e-06
1.55001e-07
4.11281e-06
4.77323e-08
4.12104e-06
1.23909e-07
4.11718e-06
5.03834e-08
4.12104e-06
9.81807e-09
4.11635e-06
1.43828e-08
4.10856e-06
-1.99488e-08
4.10702e-06
-1.24874e-08
4.10082e-06
4.12474e-09
4.09467e-06
1.25226e-08
3.47546e-08
4.09493e-06
4.29555e-06
-4.7094e-07
4.32342e-06
2.775e-07
4.30706e-06
-6.53715e-09
4.31593e-06
-8.30165e-08
4.31628e-06
1.29441e-07
4.30599e-06
-2.63209e-07
4.30898e-06
-7.32291e-08
4.28864e-06
-1.72359e-07
4.30147e-06
2.59045e-08
4.30487e-06
1.51605e-07
4.30866e-06
4.39369e-08
4.3179e-06
1.14676e-07
4.31365e-06
5.46277e-08
4.31623e-06
7.24349e-09
4.31293e-06
1.76794e-08
4.30458e-06
-1.16021e-08
4.30254e-06
-1.04426e-08
4.29791e-06
8.75306e-09
4.29177e-06
1.86607e-08
3.5218e-08
4.29131e-06
4.50156e-06
-4.46725e-07
4.52983e-06
2.49228e-07
4.51401e-06
9.28016e-09
4.52182e-06
-9.08255e-08
4.52311e-06
1.28152e-07
4.51122e-06
-2.51321e-07
4.51546e-06
-7.74646e-08
4.49519e-06
-1.52089e-07
4.50702e-06
1.407e-08
4.51188e-06
1.46751e-07
4.51397e-06
4.1843e-08
4.52383e-06
1.04819e-07
4.51954e-06
5.89124e-08
4.52058e-06
6.20592e-09
4.51864e-06
1.96148e-08
4.51028e-06
-3.23345e-09
4.50744e-06
-7.60977e-09
4.50416e-06
1.20379e-08
4.49854e-06
2.42803e-08
3.65916e-08
4.49717e-06
4.71754e-06
-4.22155e-07
4.74598e-06
2.20796e-07
4.73112e-06
2.41356e-08
4.73748e-06
-9.71817e-08
4.7399e-06
1.25728e-07
4.72641e-06
-2.37829e-07
4.73161e-06
-8.26635e-08
4.71187e-06
-1.32348e-07
4.72232e-06
3.6229e-09
4.72872e-06
1.40346e-07
4.7292e-06
4.13676e-08
4.73928e-06
9.47374e-08
4.73533e-06
6.28652e-08
4.7347e-06
6.82852e-09
4.73395e-06
2.03698e-08
4.72603e-06
4.68795e-09
4.72232e-06
-3.90419e-09
4.72001e-06
1.43532e-08
4.71529e-06
2.89959e-08
3.87747e-08
4.71311e-06
4.94399e-06
-3.97352e-07
4.97232e-06
1.92474e-07
4.95883e-06
3.76195e-08
4.96339e-06
-1.01737e-07
4.96708e-06
1.22039e-07
4.95209e-06
-2.22843e-07
4.95788e-06
-8.84559e-08
4.93912e-06
-1.13581e-07
4.94785e-06
-5.11231e-09
4.95577e-06
1.32423e-07
4.95481e-06
4.23296e-08
4.96468e-06
8.48679e-08
4.96143e-06
6.61142e-08
4.95928e-06
8.97779e-09
4.95928e-06
2.03692e-08
4.95225e-06
1.17174e-08
4.94777e-06
5.8506e-10
4.94593e-06
1.61837e-08
4.94235e-06
3.25844e-08
4.14377e-08
4.93968e-06
5.18142e-06
-3.72452e-07
5.20933e-06
1.64563e-07
5.19759e-06
4.93594e-08
5.20009e-06
-1.04236e-07
5.20507e-06
1.17059e-07
5.18882e-06
-2.06601e-07
5.19477e-06
-9.44009e-08
5.17738e-06
-9.61925e-08
5.18417e-06
-1.18988e-08
5.19344e-06
1.23153e-07
5.1913e-06
4.44641e-08
5.20052e-06
7.56469e-08
5.19832e-06
6.83196e-08
5.1949e-06
1.23917e-08
5.19523e-06
2.00434e-08
5.18935e-06
1.76013e-08
5.18432e-06
5.61326e-09
5.18256e-06
1.79443e-08
5.18005e-06
3.50884e-08
4.41044e-08
5.17739e-06
5.43034e-06
-3.47607e-07
5.45752e-06
1.37389e-07
5.44783e-06
5.90528e-08
5.44816e-06
-1.04576e-07
5.45433e-06
1.1089e-07
5.43716e-06
-1.8943e-07
5.4428e-06
-1.00041e-07
5.42712e-06
-8.05057e-08
5.43183e-06
-1.66096e-08
5.44219e-06
1.12792e-07
5.43931e-06
4.73387e-08
5.44735e-06
6.7607e-08
5.44642e-06
6.92552e-08
5.44213e-06
1.66805e-08
5.4424e-06
1.97686e-08
5.43774e-06
2.2268e-08
5.4325e-06
1.08536e-08
5.43055e-06
1.98953e-08
5.42885e-06
3.67883e-08
4.63342e-08
5.42662e-06
5.69133e-06
-3.22978e-07
5.71743e-06
1.11292e-07
5.70998e-06
6.64965e-08
5.70824e-06
-1.02835e-07
5.71538e-06
1.03753e-07
5.69766e-06
-1.71711e-07
5.70255e-06
-1.04938e-07
5.68879e-06
-6.67429e-08
5.69139e-06
-1.92121e-08
5.70249e-06
1.01691e-07
5.6994e-06
5.04317e-08
5.70592e-06
6.10864e-08
5.70627e-06
6.891e-08
5.7015e-06
2.14483e-08
5.70143e-06
1.98413e-08
5.69791e-06
2.57883e-08
5.69279e-06
1.5975e-08
5.69056e-06
2.21217e-08
5.68933e-06
3.80217e-08
4.79255e-08
5.68773e-06
5.96495e-06
-2.98735e-07
5.98962e-06
8.66235e-08
5.98452e-06
7.15983e-08
5.98095e-06
-9.92691e-08
5.98873e-06
9.59763e-08
5.97087e-06
-1.53851e-07
5.97465e-06
-1.08716e-07
5.96292e-06
-5.50158e-08
5.96346e-06
-1.97489e-08
5.97487e-06
9.02744e-08
5.97204e-06
5.32633e-08
5.97703e-06
5.60999e-08
5.97844e-06
6.74932e-08
5.97357e-06
2.63205e-08
5.97295e-06
2.04609e-08
5.97041e-06
2.83281e-08
5.96563e-06
2.07545e-08
5.96322e-06
2.4532e-08
5.96221e-06
3.90376e-08
4.89603e-08
5.96117e-06
6.25181e-06
-2.75054e-07
6.27469e-06
6.37383e-08
6.27192e-06
7.43745e-08
6.26691e-06
-9.42635e-08
6.27498e-06
8.79114e-08
6.25736e-06
-1.36238e-07
6.25977e-06
-1.11119e-07
6.25001e-06
-4.52645e-08
6.24871e-06
-1.84417e-08
6.25986e-06
7.91245e-08
6.2577e-06
5.54205e-08
6.26128e-06
5.25219e-08
6.26357e-06
6.52023e-08
6.25893e-06
3.09612e-08
6.25763e-06
2.1756e-08
6.25585e-06
3.01125e-08
6.2516e-06
2.50013e-08
6.24909e-06
2.70427e-08
6.24821e-06
3.9915e-08
4.96373e-08
6.24754e-06
6.55253e-06
-2.52115e-07
6.57327e-06
4.2996e-08
6.57275e-06
7.48927e-08
6.56672e-06
-8.82309e-08
6.57477e-06
7.986e-08
6.55774e-06
-1.19205e-07
6.55862e-06
-1.11995e-07
6.55065e-06
-3.72972e-08
6.54782e-06
-1.56124e-08
6.55815e-06
6.87981e-08
6.55686e-06
5.67075e-08
6.55932e-06
5.00605e-08
6.56226e-06
6.22636e-08
6.55818e-06
3.5045e-08
6.55614e-06
2.37886e-08
6.55487e-06
3.13901e-08
6.55127e-06
2.85986e-08
6.54876e-06
2.95496e-08
6.54798e-06
4.06999e-08
5.00581e-08
6.54756e-06
6.86777e-06
-2.30098e-07
6.886e-06
2.47729e-08
6.88772e-06
7.31743e-08
6.88102e-06
-8.15353e-08
6.88881e-06
7.20741e-08
6.87259e-06
-1.02991e-07
6.87191e-06
-1.1131e-07
6.86543e-06
-3.08207e-08
6.8615e-06
-1.16802e-08
6.87074e-06
5.95548e-08
6.87025e-06
5.7201e-08
6.87179e-06
4.85214e-08
6.87518e-06
5.88699e-08
6.87189e-06
3.83306e-08
6.86926e-06
2.64201e-08
6.86815e-06
3.25023e-08
6.86523e-06
3.15177e-08
6.86288e-06
3.19057e-08
6.86214e-06
4.14333e-08
5.0254e-08
6.86195e-06
7.19822e-06
-2.09181e-07
7.21352e-06
9.46749e-09
7.21751e-06
6.91921e-08
7.21049e-06
-7.45209e-08
7.2178e-06
6.47695e-08
7.20259e-06
-8.778e-08
7.20035e-06
-1.0907e-07
7.19505e-06
-2.55212e-08
7.19045e-06
-7.07873e-09
7.19859e-06
5.14124e-08
7.19871e-06
5.70747e-08
7.19936e-06
4.78733e-08
7.20297e-06
5.52583e-08
7.20072e-06
4.0584e-08
7.19772e-06
2.94181e-08
7.19648e-06
3.37487e-08
7.19413e-06
3.38649e-08
7.19207e-06
3.39649e-08
7.19142e-06
4.20846e-08
5.02728e-08
7.1914e-06
7.54457e-06
-1.89527e-07
7.55657e-06
-2.53001e-09
7.56283e-06
6.29257e-08
7.55586e-06
-6.75419e-08
7.5625e-06
5.8129e-08
7.54839e-06
-7.36744e-08
7.54475e-06
-1.05428e-07
7.54028e-06
-2.10491e-08
7.53536e-06
-2.16551e-09
7.54244e-06
4.43393e-08
7.54312e-06
5.63915e-08
7.54288e-06
4.81156e-08
7.5463e-06
5.18402e-08
7.54524e-06
4.16434e-08
7.54225e-06
3.24008e-08
7.54069e-06
3.5308e-08
7.53871e-06
3.58469e-08
7.53699e-06
3.56821e-08
7.53652e-06
4.25585e-08
5.0159e-08
7.53663e-06
7.90756e-06
-1.71273e-07
7.91612e-06
-1.10881e-08
7.92442e-06
5.46224e-08
7.91787e-06
-6.09909e-08
7.92362e-06
5.23724e-08
7.91066e-06
-6.07144e-08
7.90599e-06
-1.00749e-07
7.90197e-06
-1.70368e-08
7.89684e-06
2.9665e-09
7.90299e-06
3.81914e-08
7.90429e-06
5.50955e-08
7.90317e-06
4.92292e-08
7.90596e-06
4.90474e-08
7.90609e-06
4.1518e-08
7.90353e-06
3.49658e-08
7.90166e-06
3.71705e-08
7.89981e-06
3.76963e-08
7.89835e-06
3.71434e-08
7.89817e-06
4.27418e-08
4.98945e-08
7.89843e-06
8.28793e-06
-1.54523e-07
8.29323e-06
-1.63836e-08
8.30301e-06
4.4841e-08
8.29727e-06
-5.52521e-08
8.30193e-06
4.77072e-08
8.2901e-06
-4.88834e-08
8.28483e-06
-9.54713e-08
8.28101e-06
-1.32164e-08
8.27554e-06
8.42898e-09
8.28091e-06
3.28272e-08
8.28297e-06
5.3034e-08
8.28117e-06
5.10308e-08
8.28292e-06
4.72928e-08
8.28393e-06
4.051e-08
8.28216e-06
3.67371e-08
8.28025e-06
3.90744e-08
8.27833e-06
3.96235e-08
8.27698e-06
3.84869e-08
8.27706e-06
4.26639e-08
4.93756e-08
8.27758e-06
8.68647e-06
-1.3933e-07
8.68891e-06
-1.88238e-08
8.69936e-06
3.43862e-08
8.69484e-06
-5.0728e-08
8.69828e-06
4.42682e-08
8.68747e-06
-3.80703e-08
8.68199e-06
-8.99976e-08
8.67834e-06
-9.56143e-09
8.67233e-06
1.44378e-08
8.6768e-06
2.83543e-08
8.6799e-06
4.99368e-08
8.67782e-06
5.31096e-08
8.67822e-06
4.68925e-08
8.67956e-06
3.91729e-08
8.67885e-06
3.74457e-08
8.67717e-06
4.07512e-08
8.67522e-06
4.15764e-08
8.67381e-06
3.98984e-08
8.67399e-06
4.24822e-08
4.85081e-08
8.67486e-06
9.10397e-06
-1.2568e-07
9.10407e-06
-1.89278e-08
9.11431e-06
2.41529e-08
9.11145e-06
-4.78674e-08
9.11366e-06
4.2053e-08
9.10354e-06
-2.79448e-08
9.09823e-06
-8.46959e-08
9.09497e-06
-6.29668e-09
9.08815e-06
2.12611e-08
9.0914e-06
2.51047e-08
9.09576e-06
4.557e-08
9.09399e-06
5.48863e-08
9.09293e-06
4.79434e-08
9.09398e-06
3.813e-08
9.09429e-06
3.71338e-08
9.09319e-06
4.18558e-08
9.09137e-06
4.33945e-08
9.08981e-06
4.14536e-08
9.08987e-06
4.24214e-08
4.73427e-08
9.09104e-06
9.54127e-06
-1.13494e-07
9.53967e-06
-1.73239e-08
9.54878e-06
1.50389e-08
9.54796e-06
-4.70483e-08
9.54918e-06
4.08363e-08
9.53918e-06
-1.79437e-08
9.53423e-06
-7.97476e-08
9.53187e-06
-3.93815e-09
9.52417e-06
2.89606e-08
9.52561e-06
2.36655e-08
9.53118e-06
3.99985e-08
9.53044e-06
5.56332e-08
9.52819e-06
5.01899e-08
9.52833e-06
3.79926e-08
9.52931e-06
3.6154e-08
9.52905e-06
4.21182e-08
9.52758e-06
4.48636e-08
9.526e-06
4.3033e-08
9.52578e-06
4.26428e-08
4.61032e-08
9.52702e-06
9.99927e-06
-1.02627e-07
9.99663e-06
-1.46832e-08
1.00039e-05
7.81092e-09
1.00052e-05
-4.84007e-08
1.00059e-05
4.0099e-08
9.99546e-06
-7.45643e-09
9.99076e-06
-7.50467e-08
9.98995e-06
-3.12912e-09
9.98172e-06
3.71898e-08
9.98062e-06
2.4762e-08
9.98682e-06
3.37983e-08
9.98784e-06
5.46162e-08
9.985e-06
5.3027e-08
9.98387e-06
3.91242e-08
9.98494e-06
3.50846e-08
9.98556e-06
4.14968e-08
9.98471e-06
4.57102e-08
9.98325e-06
4.44994e-08
9.98278e-06
4.31077e-08
4.50448e-08
9.98384e-06
1.04789e-05
-9.28844e-08
1.04759e-05
-1.16393e-08
1.04807e-05
2.91963e-09
1.04839e-05
-5.15623e-08
1.0485e-05
3.9007e-08
1.04736e-05
3.98319e-09
1.04686e-05
-7.01207e-08
1.047e-05
-4.47292e-09
1.0462e-05
4.51869e-08
1.04579e-05
2.8809e-08
1.04636e-05
2.81646e-08
1.04668e-05
5.13388e-08
1.04643e-05
5.56141e-08
1.04618e-05
4.15533e-08
1.04623e-05
3.45716e-08
1.04637e-05
4.01653e-08
1.04637e-05
4.57106e-08
1.04625e-05
4.56824e-08
1.04619e-05
4.36909e-08
4.42801e-08
1.04627e-05
1.09812e-05
-8.4041e-08
1.09783e-05
-8.74824e-09
1.09807e-05
4.62243e-10
1.09849e-05
-5.5754e-08
1.09873e-05
3.66629e-08
1.09749e-05
1.63603e-08
1.09688e-05
-6.4004e-08
1.09726e-05
-8.29027e-09
1.09659e-05
5.18431e-08
1.09592e-05
3.56013e-08
1.09628e-05
2.45293e-08
1.0968e-05
4.6113e-08
1.09668e-05
5.68686e-08
1.09634e-05
4.49275e-08
1.09629e-05
3.50877e-08
1.09645e-05
3.85711e-08
1.09653e-05
4.48468e-08
1.09647e-05
4.6302e-08
1.09641e-05
4.43101e-08
4.373e-08
1.09646e-05
1.15072e-05
-7.58559e-08
1.15049e-05
-6.4816e-09
1.15051e-05
3.17143e-10
1.15094e-05
-6.00535e-08
1.15137e-05
3.23546e-08
1.15009e-05
2.91648e-08
1.14924e-05
-5.55882e-08
1.14984e-05
-1.42845e-08
1.14944e-05
5.58354e-08
1.14856e-05
4.44777e-08
1.14862e-05
2.39136e-08
1.14923e-05
3.99727e-08
1.14931e-05
5.60917e-08
1.14895e-05
4.84911e-08
1.14879e-05
3.67448e-08
1.14892e-05
3.72725e-08
1.14907e-05
4.33053e-08
1.14909e-05
4.61475e-08
1.14904e-05
4.48223e-08
4.33083e-08
1.14908e-05
1.20581e-05
-6.80952e-08
1.20568e-05
-5.17939e-09
1.20549e-05
2.16862e-09
1.20584e-05
-6.35272e-08
1.20649e-05
2.58249e-08
1.20527e-05
4.13577e-08
1.20413e-05
-4.41832e-08
1.20482e-05
-2.11673e-08
1.2048e-05
5.60006e-08
1.20383e-05
5.42146e-08
1.20356e-05
2.66407e-08
1.20412e-05
3.43596e-08
1.2044e-05
5.33187e-08
1.20412e-05
5.12228e-08
1.20386e-05
3.93216e-08
1.20392e-05
3.672e-08
1.2041e-05
4.1452e-08
1.2042e-05
4.51709e-08
1.20418e-05
4.49991e-08
4.29822e-08
1.20422e-05
1.26351e-05
-6.0565e-08
1.26349e-05
-5.0429e-09
1.26315e-05
5.57421e-09
1.26334e-05
-6.5368e-08
1.26419e-05
1.73213e-08
1.26316e-05
5.16336e-08
1.26172e-05
-2.97519e-08
1.26228e-05
-2.68471e-08
1.26273e-05
5.15868e-08
1.26183e-05
6.31396e-08
1.26125e-05
3.25049e-08
1.26162e-05
3.06203e-08
1.26205e-05
4.90559e-08
1.26192e-05
5.24886e-08
1.26163e-05
4.22689e-08
1.2616e-05
3.70165e-08
1.26176e-05
3.9759e-08
1.26193e-05
4.35461e-08
1.26197e-05
4.45899e-08
4.26908e-08
1.262e-05
1.32395e-05
-5.31258e-08
1.32406e-05
-6.18253e-09
1.32362e-05
1.0053e-08
1.32358e-05
-6.49895e-08
1.32457e-05
7.44195e-09
1.32385e-05
5.88309e-08
1.32217e-05
-1.30021e-08
1.3224e-05
-2.91412e-08
1.32327e-05
4.28706e-08
1.32264e-05
6.94547e-08
1.32182e-05
4.06735e-08
1.32193e-05
2.95987e-08
1.3224e-05
4.43002e-08
1.32244e-05
5.21313e-08
1.32218e-05
4.48796e-08
1.32208e-05
3.80108e-08
1.3222e-05
3.85336e-08
1.32239e-05
4.16219e-08
1.3225e-05
4.34817e-08
4.22853e-08
1.32254e-05
1.38728e-05
-4.57278e-08
1.38751e-05
-8.47552e-09
1.38701e-05
1.49808e-08
1.3867e-05
-6.19016e-08
1.38776e-05
-3.14595e-09
1.3874e-05
6.24166e-08
1.38564e-05
4.59685e-09
1.3854e-05
-2.67433e-08
1.3865e-05
3.19178e-08
1.38631e-05
7.13659e-08
1.3854e-05
4.97267e-08
1.38522e-05
3.14795e-08
1.38562e-05
4.02146e-08
1.3858e-05
5.0374e-08
1.38562e-05
4.66462e-08
1.38548e-05
3.94028e-08
1.38555e-05
3.78291e-08
1.38574e-05
3.97649e-08
1.38591e-05
4.17688e-08
4.15502e-08
1.38599e-05
1.45363e-05
-3.8411e-08
1.45394e-05
-1.15208e-08
1.45348e-05
1.96069e-08
1.45288e-05
-5.58877e-08
1.45391e-05
-1.3531e-08
1.45393e-05
6.22963e-08
1.45225e-05
2.1389e-08
1.45156e-05
-1.98819e-08
1.45259e-05
2.1599e-08
1.45287e-05
6.85786e-08
1.45209e-05
5.75607e-08
1.45164e-05
3.59207e-08
1.45189e-05
3.77525e-08
1.45216e-05
4.76839e-08
1.45208e-05
4.74251e-08
1.45194e-05
4.07676e-08
1.45197e-05
3.75443e-08
1.45213e-05
3.82018e-08
1.45233e-05
3.97611e-08
4.03058e-08
1.45245e-05
1.52318e-05
-3.12991e-08
1.5235e-05
-1.47387e-08
1.52314e-05
2.31977e-08
1.52226e-05
-4.7107e-08
1.52316e-05
-2.25581e-08
1.52353e-05
5.85919e-08
1.52206e-05
3.60974e-08
1.52104e-05
-9.61914e-09
1.52178e-05
1.41878e-08
1.52244e-05
6.19704e-08
1.52194e-05
6.26048e-08
1.52134e-05
4.18376e-08
1.5214e-05
3.72071e-08
1.52167e-05
4.49979e-08
1.52169e-05
4.71427e-08
1.52158e-05
4.18886e-08
1.52159e-05
3.75021e-08
1.52171e-05
3.69218e-08
1.52191e-05
3.77972e-08
3.8552e-08
1.52209e-05
1.59606e-05
-2.45847e-08
1.59633e-05
-1.74215e-08
1.59614e-05
2.50958e-08
1.59504e-05
-3.61258e-08
1.59567e-05
-2.88328e-08
1.59636e-05
5.16902e-08
1.5952e-05
4.76449e-08
1.59397e-05
2.7777e-09
1.59432e-05
1.06225e-08
1.59517e-05
5.34844e-08
1.595e-05
6.42826e-08
1.59444e-05
4.74566e-08
1.59429e-05
3.86677e-08
1.59451e-05
4.28487e-08
1.59461e-05
4.61017e-08
1.59455e-05
4.25085e-08
1.59454e-05
3.76073e-08
1.59465e-05
3.58103e-08
1.59483e-05
3.60314e-08
3.65448e-08
1.59503e-05
1.67245e-05
-1.84621e-08
1.6726e-05
-1.89665e-08
1.6726e-05
2.50799e-08
1.67139e-05
-2.40044e-08
1.67162e-05
-3.11232e-08
1.67254e-05
4.2527e-08
1.67177e-05
5.53204e-08
1.67049e-05
1.56238e-08
1.67045e-05
1.0964e-08
1.67127e-05
4.5263e-08
1.67142e-05
6.27903e-08
1.67101e-05
5.16067e-08
1.67076e-05
4.11645e-08
1.67086e-05
4.18079e-08
1.671e-05
4.46829e-08
1.671e-05
4.25612e-08
1.67099e-05
3.77389e-08
1.67108e-05
3.48161e-08
1.67125e-05
3.43734e-08
3.45875e-08
1.67145e-05
1.75249e-05
-1.30525e-08
1.75252e-05
-1.91704e-08
1.75266e-05
2.35852e-08
1.75148e-05
-1.21956e-08
1.75126e-05
-2.89317e-08
1.75223e-05
3.28356e-08
1.7519e-05
5.8684e-08
1.75071e-05
2.7479e-08
1.75035e-05
1.46318e-08
1.75098e-05
3.89174e-08
1.75138e-05
5.88249e-08
1.75114e-05
5.39589e-08
1.7509e-05
4.35568e-08
1.75091e-05
4.16933e-08
1.75103e-05
4.3467e-08
1.75108e-05
4.20641e-08
1.75108e-05
3.77689e-08
1.75116e-05
3.39936e-08
1.75133e-05
3.27179e-08
3.27678e-08
1.75151e-05
1.83637e-05
-8.42537e-09
1.83626e-05
-1.80356e-08
1.83649e-05
2.12631e-08
1.83545e-05
-1.74878e-09
1.83487e-05
-2.31784e-08
1.83568e-05
2.47868e-08
1.83574e-05
5.80825e-08
1.83477e-05
3.71586e-08
1.83418e-05
2.04712e-08
1.83456e-05
3.51364e-08
1.83505e-05
5.39848e-08
1.83503e-05
5.41619e-08
1.83484e-05
4.54603e-08
1.83482e-05
4.18738e-08
1.8349e-05
4.26174e-08
1.83497e-05
4.13689e-08
1.835e-05
3.75059e-08
1.83505e-05
3.34452e-08
1.83522e-05
3.10439e-08
3.09645e-08
1.8354e-05
1.92425e-05
-4.58346e-09
1.92402e-05
-1.56719e-08
1.92428e-05