/*--------------------------------*- C++ -*----------------------------------*\
| =========                 |                                                 |
| \\      /  F ield         | OpenFOAM: The Open Source CFD Toolbox           |
|  \\    /   O peration     | Version:  2106                                  |
|   \\  /    A nd           | Website:  www.openfoam.com                      |
|    \\/     M anipulation  |                                                 |
\*---------------------------------------------------------------------------*/
FoamFile
{
    version     2.0;
    format      ascii;
    arch        "LSB;label=32;scalar=64";
    class       surfaceScalarField;
    location    "0.295";
    object      phi;
}
// * * * * * * * * * * * * * * * * * * * * * * * * * * * * * * * * * * * * * //

dimensions      [0 3 -1 0 0 0 0];

oriented        oriented;

internalField   nonuniform List<scalar> 
19000
(
1.16807e-06
-4.5221e-09
1.16934e-06
-1.28871e-07
1.17122e-06
2.13746e-07
1.17e-06
-3.98817e-07
1.18604e-06
5.59925e-07
1.11537e-06
-5.14839e-07
1.17498e-06
3.58775e-07
1.16318e-06
4.07975e-08
1.15748e-06
-3.2484e-07
1.16471e-06
2.68093e-07
1.14062e-06
1.53729e-07
1.14647e-06
2.96465e-07
1.15645e-06
-7.03448e-08
1.15494e-06
1.53628e-07
1.16686e-06
-9.79898e-08
1.15997e-06
5.49479e-08
1.16541e-06
-4.9932e-08
1.15626e-06
3.27232e-08
1.15517e-06
-1.48818e-08
2.62115e-08
1.1261e-06
1.22294e-06
-3.19727e-09
1.22521e-06
-1.31144e-07
1.22528e-06
2.13675e-07
1.22462e-06
-3.98155e-07
1.23776e-06
5.46788e-07
1.16938e-06
-4.46462e-07
1.22466e-06
3.0349e-07
1.2206e-06
4.4857e-08
1.21263e-06
-3.16864e-07
1.22604e-06
2.54678e-07
1.19686e-06
1.82907e-07
1.20858e-06
2.84749e-07
1.21163e-06
-7.33927e-08
1.22094e-06
1.44319e-07
1.22047e-06
-9.75273e-08
1.2286e-06
4.68266e-08
1.21581e-06
-3.71459e-08
1.22747e-06
2.1067e-08
1.20028e-06
1.23081e-08
1.72737e-08
1.20921e-06
1.27966e-06
-7.52658e-11
1.28365e-06
-1.35133e-07
1.28202e-06
2.15301e-07
1.28141e-06
-3.97545e-07
1.29188e-06
5.36321e-07
1.23179e-06
-3.86369e-07
1.27543e-06
2.59844e-07
1.28505e-06
3.52426e-08
1.26948e-06
-3.01297e-07
1.2876e-06
2.36557e-07
1.256e-06
2.14506e-07
1.26993e-06
2.7082e-07
1.26698e-06
-7.04424e-08
1.28149e-06
1.29811e-07
1.27443e-06
-9.04698e-08
1.28547e-06
3.57855e-08
1.27197e-06
-2.36407e-08
1.27921e-06
1.38195e-08
1.26084e-06
3.06873e-08
2.41499e-08
1.25396e-06
1.33893e-06
5.10276e-09
1.3446e-06
-1.4081e-07
1.34181e-06
2.18098e-07
1.34142e-06
-3.97159e-07
1.34949e-06
5.28255e-07
1.30249e-06
-3.39369e-07
1.33143e-06
2.309e-07
1.35266e-06
1.40169e-08
1.33e-06
-2.78644e-07
1.34508e-06
2.21486e-07
1.32016e-06
2.39422e-07
1.32968e-06
2.61294e-07
1.32629e-06
-6.70521e-08
1.33892e-06
1.17187e-07
1.3326e-06
-8.41484e-08
1.34033e-06
2.80485e-08
1.3316e-06
-1.49052e-08
1.33439e-06
1.10315e-08
1.32161e-06
4.34688e-08
3.46993e-08
1.31106e-06
1.40168e-06
1.17728e-08
1.40806e-06
-1.47182e-07
1.40509e-06
2.21064e-07
1.40471e-06
-3.96784e-07
1.41115e-06
5.21815e-07
1.3783e-06
-3.06511e-07
1.39442e-06
2.14779e-07
1.41965e-06
-1.12121e-08
1.39542e-06
-2.54418e-07
1.40326e-06
2.13648e-07
1.38932e-06
2.53364e-07
1.39431e-06
2.56298e-07
1.39114e-06
-6.38763e-08
1.40122e-06
1.07106e-07
1.39592e-06
-7.88484e-08
1.40171e-06
2.22532e-08
1.39493e-06
-8.12519e-09
1.39688e-06
9.08423e-09
1.38591e-06
5.44361e-08
4.56127e-08
1.375e-06
1.46874e-06
1.87131e-08
1.47441e-06
-1.52854e-07
1.47219e-06
2.23283e-07
1.47129e-06
-3.9589e-07
1.477e-06
5.16111e-07
1.45614e-06
-2.85656e-07
1.46384e-06
2.0708e-07
1.48597e-06
-3.33363e-08
1.46508e-06
-2.33529e-07
1.46735e-06
2.11379e-07
1.4623e-06
2.58413e-07
1.46559e-06
2.53009e-07
1.46139e-06
-5.96815e-08
1.46957e-06
9.89304e-08
1.46404e-06
-7.33183e-08
1.46906e-06
1.7231e-08
1.46268e-06
-1.7493e-09
1.46423e-06
7.5418e-09
1.45504e-06
6.36261e-08
5.70549e-08
1.44359e-06
1.54028e-06
2.46507e-08
1.54423e-06
-1.56803e-07
1.54314e-06
2.24366e-07
1.54124e-06
-3.93985e-07
1.54685e-06
5.10505e-07
1.53453e-06
-2.73339e-07
1.5378e-06
2.03809e-07
1.55355e-06
-4.90907e-08
1.53742e-06
-2.17394e-07
1.53794e-06
2.10861e-07
1.53804e-06
2.58309e-07
1.54141e-06
2.49634e-07
1.53584e-06
-5.41034e-08
1.54244e-06
9.23246e-08
1.53596e-06
-6.68369e-08
1.54042e-06
1.27705e-08
1.53417e-06
4.50603e-09
1.53483e-06
6.87538e-09
1.52765e-06
7.08055e-08
6.88585e-08
1.51585e-06
1.61591e-06
2.88687e-08
1.6179e-06
-1.58788e-07
1.61779e-06
2.24468e-07
1.61468e-06
-3.90874e-07
1.62049e-06
5.047e-07
1.61343e-06
-2.66282e-07
1.61472e-06
2.02525e-07
1.62425e-06
-5.86238e-08
1.61174e-06
-2.04885e-07
1.613e-06
2.09607e-07
1.61582e-06
2.55489e-07
1.61978e-06
2.45666e-07
1.6132e-06
-4.75214e-08
1.61866e-06
8.687e-08
1.61112e-06
-5.92957e-08
1.61489e-06
8.99891e-09
1.60883e-06
1.05665e-08
1.60821e-06
7.49234e-09
1.60295e-06
7.60639e-08
8.06478e-08
1.59116e-06
1.69506e-06
3.1379e-08
1.69548e-06
-1.59203e-07
1.69599e-06
2.23958e-07
1.69176e-06
-3.8665e-07
1.69787e-06
4.98597e-07
1.69362e-06
-2.62035e-07
1.69414e-06
2.02002e-07
1.6991e-06
-6.35821e-08
1.68852e-06
-1.94304e-07
1.69103e-06
2.07099e-07
1.69545e-06
2.51066e-07
1.70011e-06
2.41008e-07
1.69307e-06
-4.04772e-08
1.69783e-06
8.21089e-08
1.68956e-06
-5.1025e-08
1.69247e-06
6.08388e-09
1.68675e-06
1.62856e-08
1.68466e-06
9.58429e-09
1.68101e-06
7.97094e-08
9.2078e-08
1.66958e-06
1.77745e-06
3.26546e-08
1.7769e-06
-1.5866e-07
1.77774e-06
2.23121e-07
1.77262e-06
-3.8153e-07
1.77905e-06
4.92168e-07
1.77604e-06
-2.59022e-07
1.77644e-06
2.016e-07
1.77848e-06
-6.56232e-08
1.76863e-06
-1.84455e-07
1.77192e-06
2.03811e-07
1.77744e-06
2.4555e-07
1.78277e-06
2.35677e-07
1.77571e-06
-3.34216e-08
1.78007e-06
7.77473e-08
1.77155e-06
-4.25046e-08
1.77352e-06
4.11474e-09
1.76828e-06
2.15313e-08
1.76476e-06
1.30997e-08
1.76229e-06
8.21813e-08
1.02835e-07
1.75153e-06
1.86315e-06
3.32486e-08
1.86215e-06
-1.57656e-07
1.8632e-06
2.22075e-07
1.8574e-06
-3.75732e-07
1.86417e-06
4.854e-07
1.86147e-06
-2.56323e-07
1.86215e-06
2.0092e-07
1.86238e-06
-6.58564e-08
1.85274e-06
-1.74814e-07
1.85624e-06
2.00309e-07
1.86257e-06
2.39219e-07
1.86843e-06
2.29821e-07
1.86164e-06
-2.66317e-08
1.86569e-06
7.36952e-08
1.85733e-06
-3.41429e-08
1.85835e-06
3.09322e-09
1.85366e-06
2.6224e-08
1.84894e-06
1.78162e-08
1.84719e-06
8.39343e-08
1.12604e-07
1.83742e-06
1.95252e-06
3.35674e-08
1.95133e-06
-1.56469e-07
1.95256e-06
2.20847e-07
1.94626e-06
-3.69429e-07
1.95338e-06
4.78278e-07
1.95048e-06
-2.53427e-07
1.9517e-06
1.99699e-07
1.95072e-06
-6.48743e-08
1.94123e-06
-1.65317e-07
1.94459e-06
1.96948e-07
1.95157e-06
2.32234e-07
1.95769e-06
2.23702e-07
1.95128e-06
-2.02204e-08
1.95497e-06
7.00019e-08
1.94703e-06
-2.62057e-08
1.94717e-06
2.95468e-09
1.94303e-06
3.03668e-08
1.93745e-06
2.33939e-08
1.93602e-06
8.53715e-08
1.21091e-07
1.92753e-06
2.04592e-06
3.38339e-08
2.04467e-06
-1.55218e-07
2.04607e-06
2.19449e-07
2.03938e-06
-3.62741e-07
2.0469e-06
4.7076e-07
2.04351e-06
-2.50034e-07
2.0454e-06
1.97802e-07
2.04348e-06
-6.29542e-08
2.03429e-06
-1.56125e-07
2.03733e-06
1.93907e-07
2.04489e-06
2.24681e-07
2.05098e-06
2.17611e-07
2.04495e-06
-1.41957e-08
2.04819e-06
6.67672e-08
2.0408e-06
-1.88202e-08
2.04018e-06
3.58003e-09
2.03649e-06
3.40512e-08
2.03044e-06
2.94452e-08
2.02902e-06
8.67918e-08
1.28096e-07
2.02201e-06
2.14369e-06
3.41431e-08
2.14242e-06
-1.53944e-07
2.14396e-06
2.17904e-07
2.13696e-06
-3.55739e-07
2.14495e-06
4.62775e-07
2.14087e-06
-2.45959e-07
2.14348e-06
1.95189e-07
2.14074e-06
-6.02095e-08
2.13209e-06
-1.47473e-07
2.13472e-06
1.9128e-07
2.14279e-06
2.16604e-07
2.14861e-06
2.11796e-07
2.14293e-06
-8.5182e-09
2.14564e-06
6.40611e-08
2.1388e-06
-1.19861e-08
2.13759e-06
4.79337e-09
2.13419e-06
3.74528e-08
2.12803e-06
3.55998e-08
2.12646e-06
8.83644e-08
1.33562e-07
2.12099e-06
2.24611e-06
3.45236e-08
2.24482e-06
-1.52659e-07
2.24649e-06
2.16234e-07
2.2392e-06
-3.48444e-07
2.24774e-06
4.54238e-07
2.24286e-06
-2.41082e-07
2.24619e-06
1.91861e-07
2.24264e-06
-5.66645e-08
2.23475e-06
-1.39582e-07
2.23689e-06
1.89138e-07
2.24547e-06
2.08024e-07
2.25086e-06
2.06408e-07
2.24547e-06
-3.12726e-09
2.24766e-06
6.18739e-08
2.24126e-06
-5.59306e-09
2.23967e-06
6.38122e-09
2.23634e-06
4.07898e-08
2.23037e-06
4.15721e-08
2.22863e-06
9.01047e-08
1.37603e-07
2.22458e-06
2.35342e-06
3.49761e-08
2.35213e-06
-1.51366e-07
2.35392e-06
2.14446e-07
2.3463e-06
-3.40831e-07
2.35547e-06
4.45073e-07
2.34972e-06
-2.35337e-07
2.35377e-06
1.87814e-07
2.34939e-06
-5.22873e-08
2.34242e-06
-1.32613e-07
2.34401e-06
1.87549e-07
2.35308e-06
1.98958e-07
2.358e-06
2.01487e-07
2.35282e-06
2.05821e-09
2.35459e-06
6.00953e-08
2.34844e-06
5.57324e-10
2.3467e-06
8.12569e-09
2.34324e-06
4.42534e-08
2.33759e-06
4.72188e-08
2.33578e-06
9.19162e-08
1.40429e-07
2.33295e-06
2.46588e-06
3.5491e-08
2.46458e-06
-1.50064e-07
2.46649e-06
2.12534e-07
2.45851e-06
-3.32847e-07
2.46835e-06
4.35229e-07
2.4617e-06
-2.28691e-07
2.46651e-06
1.83006e-07
2.46124e-06
-4.70121e-08
2.45528e-06
-1.26655e-07
2.45626e-06
1.86567e-07
2.46578e-06
1.89441e-07
2.4703e-06
1.96961e-07
2.4652e-06
7.15718e-09
2.46678e-06
5.85153e-08
2.46062e-06
6.71734e-09
2.4589e-06
9.85165e-09
2.45523e-06
4.7919e-08
2.44986e-06
5.25935e-08
2.44814e-06
9.36356e-08
1.42252e-07
2.44632e-06
2.58373e-06
3.60564e-08
2.58241e-06
-1.48748e-07
2.58447e-06
2.10478e-07
2.57605e-06
-3.24432e-07
2.58661e-06
4.24675e-07
2.57904e-06
-2.21122e-07
2.58468e-06
1.7736e-07
2.57844e-06
-4.0764e-08
2.57352e-06
-1.21735e-07
2.57386e-06
1.86222e-07
2.58375e-06
1.79554e-07
2.58805e-06
1.92662e-07
2.58286e-06
1.23415e-08
2.58452e-06
5.68555e-08
2.57809e-06
1.31481e-08
2.57648e-06
1.14669e-08
2.57271e-06
5.16861e-08
2.56737e-06
5.79346e-08
2.56592e-06
9.5082e-08
1.43215e-07
2.56496e-06
2.70722e-06
3.66608e-08
2.70589e-06
-1.47412e-07
2.70811e-06
2.08252e-07
2.69921e-06
-3.15524e-07
2.7105e-06
4.13386e-07
2.70197e-06
-2.12598e-07
2.70855e-06
1.70785e-07
2.70126e-06
-3.34814e-08
2.69737e-06
-1.17836e-07
2.69709e-06
1.86494e-07
2.70721e-06
1.69441e-07
2.71152e-06
1.88353e-07
2.70603e-06
1.78294e-08
2.70804e-06
5.48463e-08
2.70115e-06
2.00355e-08
2.6996e-06
1.3012e-08
2.696e-06
5.52873e-08
2.69041e-06
6.35273e-08
2.68933e-06
9.61667e-08
1.43367e-07
2.68917e-06
2.83663e-06
3.72943e-08
2.83527e-06
-1.46047e-07
2.8377e-06
2.05822e-07
2.82824e-06
-3.06065e-07
2.8403e-06
4.01331e-07
2.83078e-06
-2.03077e-07
2.83836e-06
1.63203e-07
2.83001e-06
-2.51346e-08
2.82708e-06
-1.14906e-07
2.82628e-06
1.87296e-07
2.8364e-06
1.5932e-07
2.84101e-06
1.83746e-07
2.83497e-06
2.38647e-08
2.83752e-06
5.22991e-08
2.83018e-06
2.73769e-08
2.82846e-06
1.47304e-08
2.82538e-06
5.83688e-08
2.81939e-06
6.95185e-08
2.81855e-06
9.70004e-08
1.42657e-07
2.81926e-06
2.97224e-06
3.79476e-08
2.97083e-06
-1.44638e-07
2.97351e-06
2.03148e-07
2.96344e-06
-2.95993e-07
2.9763e-06
3.88467e-07
2.96574e-06
-1.92512e-07
2.97437e-06
1.54568e-07
2.96498e-06
-1.57401e-08
2.96292e-06
-1.1285e-07
2.96175e-06
1.88461e-07
2.97159e-06
1.49485e-07
2.97681e-06
1.78528e-07
2.97001e-06
3.06636e-08
2.97313e-06
4.91769e-08
2.96556e-06
3.49474e-08
2.96326e-06
1.70353e-08
2.96101e-06
6.061e-08
2.95473e-06
7.58031e-08
2.95384e-06
9.78927e-08
1.41013e-07
2.95548e-06
3.11434e-06
3.86103e-08
3.11287e-06
-1.43166e-07
3.11585e-06
2.00173e-07
3.10509e-06
-2.85238e-07
3.11881e-06
3.74746e-07
3.10716e-06
-1.80863e-07
3.11685e-06
1.44876e-07
3.10648e-06
-5.37103e-09
3.10515e-06
-1.11517e-07
3.10387e-06
1.89746e-07
3.11307e-06
1.40283e-07
3.1192e-06
1.72393e-07
3.1115e-06
3.83659e-08
3.11507e-06
4.5604e-08
3.10765e-06
4.23696e-08
3.1043e-06
2.03894e-08
3.10306e-06
6.18516e-08
3.09685e-06
8.20123e-08
3.09551e-06
9.92275e-08
1.38467e-07
3.09806e-06
3.26325e-06
3.92705e-08
3.26168e-06
-1.41597e-07
3.26503e-06
1.96826e-07
3.25351e-06
-2.73724e-07
3.26814e-06
3.60123e-07
3.25538e-06
-1.68109e-07
3.26608e-06
1.34176e-07
3.25488e-06
5.83615e-09
3.25405e-06
-1.10696e-07
3.25297e-06
1.90836e-07
3.26115e-06
1.32098e-07
3.26845e-06
1.65089e-07
3.25983e-06
4.69887e-08
3.26356e-06
4.18718e-08
3.25676e-06
4.91711e-08
3.25196e-06
2.51945e-08
3.25166e-06
6.21468e-08
3.24605e-06
8.76214e-08
3.24399e-06
1.01295e-07
1.35235e-07
3.24722e-06
3.41929e-06
3.99131e-08
3.41758e-06
-1.39892e-07
3.42139e-06
1.9302e-07
3.40903e-06
-2.61368e-07
3.42459e-06
3.44567e-07
3.41075e-06
-1.54267e-07
3.42235e-06
1.22571e-07
3.41051e-06
1.76753e-08
3.40992e-06
-1.10106e-07
3.40939e-06
1.91366e-07
3.4162e-06
1.25297e-07
3.4248e-06
1.56481e-07
3.41541e-06
5.63782e-08
3.41886e-06
3.84232e-08
3.41316e-06
5.48776e-08
3.40682e-06
3.15345e-08
3.40705e-06
6.19133e-08
3.40259e-06
9.20769e-08
3.39974e-06
1.04146e-07
1.31749e-07
3.40323e-06
3.5828e-06
4.05201e-08
3.58091e-06
-1.37995e-07
3.58528e-06
1.88652e-07
3.572e-06
-2.48093e-07
3.58849e-06
3.28076e-07
3.57363e-06
-1.39403e-07
3.58597e-06
1.10229e-07
3.57378e-06
2.98648e-08
3.57307e-06
-1.09398e-07
3.5735e-06
1.90935e-07
3.57859e-06
1.20213e-07
3.58849e-06
1.46577e-07
3.57866e-06
6.62042e-08
3.58129e-06
3.57987e-08
3.57707e-06
5.90911e-08
3.56939e-06
3.92153e-08
3.56956e-06
6.17439e-08
3.56666e-06
9.49854e-08
3.56327e-06
1.07532e-07
1.28569e-07
3.56645e-06
3.75416e-06
4.10702e-08
3.752e-06
-1.35843e-07
3.75703e-06
1.83622e-07
3.74278e-06
-2.33844e-07
3.76017e-06
3.10686e-07
3.74441e-06
-1.23637e-07
3.75726e-06
9.73785e-08
3.74506e-06
4.2067e-08
3.74384e-06
-1.08187e-07
3.74562e-06
1.89161e-07
3.74876e-06
1.17071e-07
3.75977e-06
1.3557e-07
3.74998e-06
7.59978e-08
3.75123e-06
3.45477e-08
3.74876e-06
6.15552e-08
3.74014e-06
4.78411e-08
3.73966e-06
6.22211e-08
3.73842e-06
9.62227e-08
3.73499e-06
1.1096e-07
1.26199e-07
3.73736e-06
3.93372e-06
4.15388e-08
3.93124e-06
-1.33358e-07
3.93702e-06
1.77838e-07
3.92178e-06
-2.18608e-07
3.93998e-06
2.92489e-07
3.9235e-06
-1.07156e-07
3.93656e-06
8.43182e-08
3.92474e-06
5.38853e-08
3.92263e-06
-1.06078e-07
3.92604e-06
1.85749e-07
3.92721e-06
1.15902e-07
3.93893e-06
1.2385e-07
3.92971e-06
8.52178e-08
3.92917e-06
3.50944e-08
3.92844e-06
6.22811e-08
3.91944e-06
5.68412e-08
3.91787e-06
6.37903e-08
3.91811e-06
9.59828e-08
3.91526e-06
1.13813e-07
1.24911e-07
3.91655e-06
4.12189e-06
4.18994e-08
4.11899e-06
-1.30458e-07
4.1256e-06
1.71223e-07
4.10942e-06
-2.02424e-07
4.12827e-06
2.73642e-07
4.11133e-06
-9.02193e-08
4.12424e-06
7.1404e-08
4.11323e-06
6.48991e-08
4.10987e-06
-1.02714e-07
4.11505e-06
1.80562e-07
4.11443e-06
1.16523e-07
4.12635e-06
1.11936e-07
4.11821e-06
9.33509e-08
4.11564e-06
3.76635e-08
4.11638e-06
6.15453e-08
4.10767e-06
6.55539e-08
4.10476e-06
6.66941e-08
4.10603e-06
9.47194e-08
4.10433e-06
1.15514e-07
1.24641e-07
4.1046e-06
4.31908e-06
4.21244e-08
4.31567e-06
-1.27052e-07
4.32317e-06
1.63725e-07
4.30614e-06
-1.85397e-07
4.32541e-06
2.54372e-07
4.30834e-06
-7.31475e-08
4.32071e-06
5.9035e-08
4.31091e-06
7.47003e-08
4.30603e-06
-9.78384e-08
4.31293e-06
1.73665e-07
4.31089e-06
1.1856e-07
4.32243e-06
1.00399e-07
4.31581e-06
9.99745e-08
4.3112e-06
4.22705e-08
4.31293e-06
5.98162e-08
4.30515e-06
7.33307e-08
4.3009e-06
7.09438e-08
4.3026e-06
9.30256e-08
4.30241e-06
1.15699e-07
1.24991e-07
4.30206e-06
4.52571e-06
4.21866e-08
4.52171e-06
-1.23049e-07
4.53011e-06
1.55324e-07
4.51241e-06
-1.67702e-07
4.53182e-06
2.34967e-07
4.51498e-06
-5.63111e-08
4.5264e-06
4.76227e-08
4.51815e-06
8.29463e-08
4.51165e-06
-9.13396e-08
4.52001e-06
1.65306e-07
4.51703e-06
1.21537e-07
4.52767e-06
8.97576e-08
4.52281e-06
1.04835e-07
4.51639e-06
4.86981e-08
4.5185e-06
5.77048e-08
4.51222e-06
7.9605e-08
4.50684e-06
7.63225e-08
4.50836e-06
9.15123e-08
4.50972e-06
1.14333e-07
1.25327e-07
4.50939e-06
4.74224e-06
4.20618e-08
4.73756e-06
-1.18369e-07
4.74684e-06
1.4604e-07
4.72873e-06
-1.49585e-07
4.74792e-06
2.15771e-07
4.73171e-06
-4.00964e-08
4.74179e-06
3.75422e-08
4.7353e-06
8.94298e-08
4.72726e-06
-8.32983e-08
4.73672e-06
1.55853e-07
4.73324e-06
1.2501e-07
4.74258e-06
8.04173e-08
4.7396e-06
1.07818e-07
4.73171e-06
5.65871e-08
4.7336e-06
5.58157e-08
4.72919e-06
8.40187e-08
4.72308e-06
8.24254e-08
4.72394e-06
9.06558e-08
4.72655e-06
1.11728e-07
1.24955e-07
4.72692e-06
4.96913e-06
4.17307e-08
4.9637e-06
-1.12943e-07
4.9738e-06
1.35939e-07
4.95559e-06
-1.31366e-07
4.97419e-06
1.97168e-07
4.95897e-06
-2.48758e-08
4.96742e-06
2.90909e-08
4.96275e-06
9.41032e-08
4.9534e-06
-7.39549e-08
4.96354e-06
1.45711e-07
4.95993e-06
1.28621e-07
4.96769e-06
7.26619e-08
4.96659e-06
1.08922e-07
4.95767e-06
6.55008e-08
4.95882e-06
5.4671e-08
4.95638e-06
8.64501e-08
4.95009e-06
8.87171e-08
4.94998e-06
9.07643e-08
4.95333e-06
1.08385e-07
1.23382e-07
4.9549e-06
5.20687e-06
4.11815e-08
5.20066e-06
-1.06736e-07
5.21146e-06
1.25142e-07
5.19352e-06
-1.13427e-07
5.21112e-06
1.79565e-07
5.19721e-06
-1.09689e-08
5.20388e-06
2.24258e-08
5.20087e-06
9.71091e-08
5.19057e-06
-6.36528e-08
5.20104e-06
1.35242e-07
5.19753e-06
1.3213e-07
5.20354e-06
6.66487e-08
5.2042e-06
1.08267e-07
5.19477e-06
7.49297e-08
5.19479e-06
5.4654e-08
5.19417e-06
8.70666e-08
5.18828e-06
9.46106e-08
5.18715e-06
9.18914e-08
5.19064e-06
1.04889e-07
1.20467e-07
5.19356e-06
5.45596e-06
4.04127e-08
5.44898e-06
-9.97625e-08
5.46029e-06
1.13837e-07
5.44306e-06
-9.61934e-08
5.45926e-06
1.63357e-07
5.44687e-06
1.42364e-09
5.4518e-06
1.74986e-08
5.45015e-06
9.87618e-08
5.43925e-06
-5.27534e-08
5.44976e-06
1.24728e-07
5.44655e-06
1.35345e-07
5.45066e-06
6.25356e-08
5.45294e-06
1.05981e-07
5.44354e-06
8.4329e-08
5.44212e-06
5.60812e-08
5.44302e-06
8.61682e-08
5.43804e-06
9.95903e-08
5.43604e-06
9.38921e-08
5.43919e-06
1.01731e-07
1.16463e-07
5.4432e-06
5.71694e-06
3.9434e-08
5.70928e-06
-9.21034e-08
5.72082e-06
1.0229e-07
5.70473e-06
-8.00939e-08
5.71923e-06
1.48849e-07
5.70837e-06
1.22838e-08
5.71181e-06
1.40644e-08
5.71114e-06
9.94288e-08
5.6999e-06
-4.15094e-08
5.71027e-06
1.14355e-07
5.70755e-06
1.38066e-07
5.70963e-06
6.04528e-08
5.71329e-06
1.02321e-07
5.70456e-06
9.30569e-08
5.70146e-06
5.91846e-08
5.70346e-06
8.41695e-08
5.69981e-06
1.03241e-07
5.6972e-06
9.64991e-08
5.69972e-06
9.92089e-08
1.11901e-07
5.70429e-06
5.99036e-06
3.82674e-08
5.98216e-06
-8.3909e-08
5.99362e-06
9.08384e-08
5.97902e-06
-6.54994e-08
5.99169e-06
1.3618e-07
5.9822e-06
2.17705e-08
5.98449e-06
1.17831e-08
5.98451e-06
9.94046e-08
5.97301e-06
-3.00091e-08
5.98314e-06
1.04227e-07
5.98112e-06
1.40082e-07
5.98111e-06
6.04645e-08
5.9858e-06
9.76288e-08
5.97828e-06
1.00583e-07
5.9736e-06
6.38556e-08
5.97608e-06
8.16934e-08
5.97405e-06
1.0527e-07
5.97118e-06
9.93708e-08
5.97297e-06
9.74215e-08
1.07325e-07
5.97754e-06
6.27681e-06
3.69472e-08
6.26827e-06
-7.53733e-08
6.27925e-06
7.98631e-08
6.26642e-06
-5.26701e-08
6.27734e-06
1.25256e-07
6.26893e-06
3.01815e-08
6.27035e-06
1.03609e-08
6.27096e-06
9.87936e-08
6.25916e-06
-1.82077e-08
6.26889e-06
9.45047e-08
6.26791e-06
1.41053e-07
6.2658e-06
6.25836e-08
6.27103e-06
9.23982e-08
6.26519e-06
1.06417e-07
6.25925e-06
6.97943e-08
6.26159e-06
7.9355e-08
6.26124e-06
1.0562e-07
6.25848e-06
1.02128e-07
6.25963e-06
9.62793e-08
1.03094e-07
6.26386e-06
6.5769e-06
3.55178e-08
6.56823e-06
-6.67082e-08
6.57835e-06
6.97473e-08
6.5674e-06
-4.17242e-08
6.5769e-06
1.15761e-07
6.5692e-06
3.78844e-08
6.56994e-06
9.61433e-09
6.57117e-06
9.75669e-08
6.55903e-06
-6.07259e-09
6.56807e-06
8.54653e-08
6.56849e-06
1.40634e-07
6.56453e-06
6.6545e-08
6.56959e-06
8.734e-08
6.56582e-06
1.10188e-07
6.55909e-06
7.65221e-08
6.56078e-06
7.76705e-08
6.56194e-06
1.04456e-07
6.55966e-06
1.0441e-07
6.56031e-06
9.56258e-08
9.92903e-08
6.56412e-06
6.89128e-06
3.40289e-08
6.88269e-06
-5.81203e-08
6.8916e-06
6.08354e-08
6.88251e-06
-3.26337e-08
6.89104e-06
1.07237e-07
6.88374e-06
4.51842e-08
6.8838e-06
9.55184e-09
6.88578e-06
9.55809e-08
6.87337e-06
6.33965e-09
6.88134e-06
7.74954e-08
6.8834e-06
1.38581e-07
6.87807e-06
7.18701e-08
6.88234e-06
8.30655e-08
6.88065e-06
1.11881e-07
6.87374e-06
8.34302e-08
6.87443e-06
7.69877e-08
6.87681e-06
1.02069e-07
6.87532e-06
1.05906e-07
6.87555e-06
9.53944e-08
9.57699e-08
6.87907e-06
7.22064e-06
3.25301e-08
7.21231e-06
-4.9794e-08
7.21977e-06
5.3376e-08
7.21235e-06
-2.5216e-08
7.22042e-06
9.91714e-08
7.21334e-06
5.22641e-08
7.21255e-06
1.03397e-08
7.21546e-06
9.267e-08
7.20298e-06
1.88177e-08
7.20944e-06
7.1039e-08
7.2131e-06
1.34915e-07
7.2072e-06
7.77778e-08
7.21014e-06
8.01246e-08
7.21028e-06
1.11734e-07
7.20385e-06
8.98672e-08
7.20333e-06
7.75002e-08
7.20655e-06
9.88509e-08
7.20614e-06
1.06321e-07
7.20592e-06
9.56129e-08
9.24429e-08
7.20925e-06
7.56569e-06
3.10666e-08
7.55778e-06
-4.18846e-08
7.56369e-06
4.74696e-08
7.55762e-06
-1.91543e-08
7.56564e-06
9.11571e-08
7.55885e-06
5.90511e-08
7.5569e-06
1.22912e-08
7.56078e-06
8.87858e-08
7.54872e-06
3.08868e-08
7.55317e-06
6.65871e-08
7.55828e-06
1.29799e-07
7.55251e-06
8.35527e-08
7.55389e-06
7.8739e-08
7.55541e-06
1.10221e-07
7.55e-06
9.52739e-08
7.54832e-06
7.91755e-08
7.55188e-06
9.52942e-08
7.55277e-06
1.05433e-07
7.55231e-06
9.60756e-08
8.96263e-08
7.55512e-06
7.92721e-06
2.96709e-08
7.91982e-06
-3.44984e-08
7.92432e-06
4.29744e-08
7.91912e-06
-1.39616e-08
7.92729e-06
8.29874e-08
7.92112e-06
6.52234e-08
7.91769e-06
1.57204e-08
7.92234e-06
8.41378e-08
7.91128e-06
4.19458e-08
7.9135e-06
6.43722e-08
7.91962e-06
1.23674e-07
7.91456e-06
8.86098e-08
7.91457e-06
7.87293e-08
7.91686e-06
1.07933e-07
7.9127e-06
9.94388e-08
7.91034e-06
8.15289e-08
7.91359e-06
9.20487e-08
7.91577e-06
1.03249e-07
7.91563e-06
9.62208e-08
8.77453e-08
7.91751e-06
8.30599e-06
2.83616e-08
8.29918e-06
-2.7691e-08
8.30254e-06
3.96218e-08
8.29766e-06
-9.08871e-09
8.30602e-06
7.46302e-08
8.30095e-06
7.02918e-08
8.29585e-06
2.08243e-08
8.30082e-06
7.91692e-08
8.29133e-06
5.14357e-08
8.29147e-06
6.42273e-08
8.29784e-06
1.17302e-07
8.29403e-06
9.24252e-08
8.29306e-06
7.96965e-08
8.29552e-06
1.05478e-07
8.29267e-06
1.02287e-07
8.29011e-06
8.4082e-08
8.29269e-06
8.94687e-08
8.2958e-06
1.0014e-07
8.29646e-06
9.55666e-08
8.6581e-08
8.29762e-06
8.70288e-06
2.71419e-08
8.69667e-06
-2.14834e-08
8.69915e-06
3.71455e-08
8.69416e-06
-4.10228e-09
8.70254e-06
6.62543e-08
8.6991e-06
7.37307e-08
8.69242e-06
2.75011e-08
8.69702e-06
7.45761e-08
8.68951e-06
5.89394e-08
8.68801e-06
6.57287e-08
8.69395e-06
1.11364e-07
8.69161e-06
9.47647e-08
8.69004e-06
8.12641e-08
8.69241e-06
1.03107e-07
8.69076e-06
1.03941e-07
8.68826e-06
8.65859e-08
8.69029e-06
8.74347e-08
8.69363e-06
9.6805e-08
8.69536e-06
9.38361e-08
8.56022e-08
8.69634e-06
9.11876e-06
2.60017e-08
9.11313e-06
-1.58494e-08
9.11499e-06
3.52811e-08
9.10965e-06
1.23469e-09
9.11768e-06
5.82232e-08
9.11623e-06
7.51868e-08
9.10849e-06
3.52423e-08
9.11194e-06
7.11269e-08
9.10643e-06
6.44419e-08
9.10402e-06
6.81463e-08
9.10913e-06
1.06251e-07
9.1079e-06
9.59975e-08
9.10623e-06
8.29289e-08
9.10861e-06
1.00724e-07
9.10784e-06
1.04711e-07
9.1055e-06
8.89306e-08
9.10724e-06
8.56986e-08
9.11046e-06
9.35763e-08
9.11291e-06
9.13882e-08
8.42301e-08
9.11428e-06
9.55455e-06
2.49151e-08
9.54942e-06
-1.0718e-08
9.55091e-06
3.37857e-08
9.54523e-06
6.91173e-09
9.55242e-06
5.10399e-08
9.55296e-06
7.46435e-08
9.54497e-06
4.32363e-08
9.54671e-06
6.9381e-08
9.54292e-06
6.8236e-08
9.54022e-06
7.08403e-08
9.5444e-06
1.02077e-07
9.54388e-06
9.65142e-08
9.54251e-06
8.42952e-08
9.54483e-06
9.84104e-08
9.54493e-06
1.04614e-07
9.54288e-06
9.0979e-08
9.5441e-06
8.44764e-08
9.54751e-06
9.01617e-08
9.54995e-06
8.89523e-08
8.21313e-08
9.55205e-06
1.00112e-05
2.3851e-08
1.00065e-05
-5.99233e-09
1.00078e-05
3.24417e-08
1.0002e-05
1.27641e-08
1.00077e-05
4.52608e-08
1.00101e-05
7.22868e-08
1.00027e-05
5.05891e-08
1.00026e-05
6.94978e-08
9.99983e-06
7.10411e-08
9.99749e-06
7.31723e-08
1.00007e-05
9.88369e-08
1.00008e-05
9.64335e-08
9.99964e-06
8.54744e-08
1.00018e-05
9.61978e-08
1.0003e-05
1.03426e-07
1.00012e-05
9.27709e-08
1.0002e-05
8.3728e-08
1.00055e-05
8.66994e-08
1.00079e-05
8.64754e-08
7.97561e-08
1.00103e-05
1.04897e-05
2.27725e-08
1.04853e-05
-1.57703e-09
1.04866e-05
3.11095e-08
1.04809e-05
1.85485e-08
1.04848e-05
4.13088e-08
1.04885e-05
6.85657e-08
1.04826e-05
5.64658e-08
1.04809e-05
7.12454e-08
1.04784e-05
7.35612e-08
1.04766e-05
7.49917e-08
1.04793e-05
9.61148e-08
1.04797e-05
9.60162e-08
1.04786e-05
8.65263e-08
1.04808e-05
9.40432e-08
1.04828e-05
1.01441e-07
1.04818e-05
9.37932e-08
1.04819e-05
8.35475e-08
1.04852e-05
8.34285e-08
1.04881e-05
8.35741e-08
7.77373e-08
1.04901e-05
1.09911e-05
2.16462e-08
1.09869e-05
2.62664e-09
1.09883e-05
2.9701e-08
1.09829e-05
2.39724e-08
1.09848e-05
3.93923e-08
1.09893e-05
6.41244e-08
1.09854e-05
6.03549e-08
1.09827e-05
7.39139e-08
1.09799e-05
7.64239e-08
1.09784e-05
7.64886e-08
1.0981e-05
9.34663e-08
1.09817e-05
9.53801e-08
1.09808e-05
8.73679e-08
1.09827e-05
9.21792e-08
1.09852e-05
9.89599e-08
1.09853e-05
9.36397e-08
1.09851e-05
8.37654e-08
1.09879e-05
8.0635e-08
1.09912e-05
8.02404e-08
7.58007e-08
1.09932e-05
1.15166e-05
2.04444e-08
1.15125e-05
6.68881e-09
1.1514e-05
2.82309e-08
1.15092e-05
2.87354e-08
1.15093e-05
3.93501e-08
1.15136e-05
5.97564e-08
1.15118e-05
6.2196e-08
1.15091e-05
7.65906e-08
1.15056e-05
7.98887e-08
1.15041e-05
7.80175e-08
1.15068e-05
9.07905e-08
1.15079e-05
9.42588e-08
1.15072e-05
8.80298e-08
1.15087e-05
9.07153e-08
1.15115e-05
9.61917e-08
1.15125e-05
9.25898e-08
1.15127e-05
8.36069e-08
1.15146e-05
7.87656e-08
1.1518e-05
7.67457e-08
7.34934e-08
1.15204e-05
1.20671e-05
1.91592e-08
1.20632e-05
1.06451e-08
1.20646e-05
2.68117e-08
1.20608e-05
3.25159e-08
1.20593e-05
4.08615e-08
1.20628e-05
5.61986e-08
1.20628e-05
6.2263e-08
1.2061e-05
7.83875e-08
1.20571e-05
8.3741e-08
1.2055e-05
8.01381e-08
1.20576e-05
8.82038e-08
1.20595e-05
9.23194e-08
1.20592e-05
8.84012e-08
1.20603e-05
8.95824e-08
1.2063e-05
9.34922e-08
1.20646e-05
9.09588e-08
1.20655e-05
8.2721e-08
1.20668e-05
7.74542e-08
1.20697e-05
7.38362e-08
7.05396e-08
1.20727e-05
1.26439e-05
1.7803e-08
1.26401e-05
1.44731e-08
1.26413e-05
2.56103e-08
1.26387e-05
3.5105e-08
1.26362e-05
4.34229e-08
1.26383e-05
5.40434e-08
1.26396e-05
6.0973e-08
1.26391e-05
7.8874e-08
1.26355e-05
8.73726e-08
1.26326e-05
8.30673e-08
1.26347e-05
8.61e-08
1.26374e-05
8.96155e-08
1.26378e-05
8.79613e-08
1.26387e-05
8.87451e-08
1.2641e-05
9.11244e-08
1.26431e-05
8.89123e-08
1.26444e-05
8.14342e-08
1.2646e-05
7.5856e-08
1.26479e-05
7.19147e-08
6.73405e-08
1.26511e-05
1.32483e-05
1.64183e-08
1.32447e-05
1.80855e-08
1.32455e-05
2.48121e-08
1.32442e-05
3.64236e-08
1.32411e-05
4.64873e-08
1.32417e-05
5.34489e-08
1.32436e-05
5.91092e-08
1.32446e-05
7.78368e-08
1.32419e-05
9.0077e-08
1.32383e-05
8.66891e-08
1.32394e-05
8.50291e-08
1.32426e-05
8.63896e-08
1.32442e-05
8.63455e-08
1.32451e-05
8.78364e-08
1.32471e-05
8.91745e-08
1.32491e-05
8.68491e-08
1.32507e-05
7.98567e-08
1.32527e-05
7.38329e-08
1.32543e-05
7.03245e-08
6.47531e-08
1.32569e-05
1.38815e-05
1.50715e-08
1.38783e-05
2.1332e-08
1.38784e-05
2.46471e-08
1.38783e-05
3.65155e-08
1.38754e-05
4.94287e-08
1.38744e-05
5.4408e-08
1.38761e-05
5.74283e-08
1.38786e-05
7.53658e-08
1.38774e-05
9.12852e-08
1.38735e-05
9.05441e-08
1.38733e-05
8.52893e-08
1.38765e-05
8.31569e-08
1.38792e-05
8.36239e-08
1.38808e-05
8.62118e-08
1.38825e-05
8.75654e-08
1.38842e-05
8.50927e-08
1.38858e-05
7.83068e-08
1.38882e-05
7.13866e-08
1.38902e-05
6.83331e-08
6.30099e-08
1.38919e-05
1.45449e-05
1.38488e-08
1.45422e-05
2.40601e-08
1.45416e-05
2.52199e-08
1.45425e-05
3.56485e-08
1.45402e-05
5.16744e-08
1.4538e-05
5.66157e-08
1.45389e-05
5.65694e-08
1.45424e-05
7.18368e-08
1.4543e-05
9.06964e-08
1.45396e-05
9.39635e-08
1.45381e-05
8.6787e-08
1.45405e-05
8.06944e-08
1.45441e-05
8.00025e-08
1.45468e-05
8.35698e-08
1.45485e-05
8.58483e-08
1.455e-05
8.36081e-08
1.45511e-05
7.72351e-08
1.45534e-05
6.90099e-08
1.45563e-05
6.54603e-08
6.1578e-08
1.45577e-05
1.52399e-05
1.28409e-08
1.52378e-05
2.61129e-08
1.52365e-05
2.65617e-08
1.52379e-05
3.41985e-08
1.52368e-05
5.27885e-08
1.52339e-05
5.95837e-08
1.52335e-05
5.69112e-08
1.52375e-05
6.78819e-08
1.52399e-05
8.82837e-08
1.52377e-05
9.61806e-08
1.52353e-05
8.92027e-08
1.52365e-05
7.94896e-08
1.52404e-05
7.60961e-08
1.52441e-05
7.98811e-08
1.52464e-05
8.35373e-08
1.52478e-05
8.21885e-08
1.52485e-05
7.65051e-08
1.52501e-05
6.74687e-08
1.52536e-05
6.19394e-08
5.9699e-08
1.52555e-05
1.5968e-05
1.2126e-08
1.59668e-05
2.73719e-08
1.59648e-05
2.85841e-08
1.59663e-05
3.2654e-08
1.59666e-05
5.25104e-08
1.59635e-05
6.27043e-08
1.59619e-05
5.84957e-08
1.59655e-05
6.42782e-08
1.59695e-05
8.42694e-08
1.59691e-05
9.66164e-08
1.59663e-05
9.20097e-08
1.59662e-05
7.95786e-08
1.59695e-05
7.27401e-08
1.59741e-05
7.53376e-08
1.59773e-05
8.03128e-08
1.59789e-05
8.05346e-08
1.59798e-05
7.56845e-08
1.59802e-05
6.70483e-08
1.59833e-05
5.88141e-08
5.68262e-08
1.59862e-05
1.6731e-05
1.17582e-08
1.67305e-05
2.78125e-08
1.67281e-05
3.10322e-08
1.67292e-05
3.15063e-08
1.67309e-05
5.08877e-08
1.67283e-05
6.52452e-08
1.67256e-05
6.1208e-08
1.67282e-05
6.16662e-08
1.67334e-05
7.90901e-08
1.6735e-05
9.50103e-08
1.67326e-05
9.44112e-08
1.67313e-05
8.0851e-08
1.67336e-05
7.04385e-08
1.67384e-05
7.05329e-08
1.67427e-05
7.60455e-08
1.67449e-05
7.83502e-08
1.6746e-05
7.45678e-08
1.6746e-05
6.70881e-08
1.67476e-05
5.71921e-08
5.32621e-08
1.67511e-05
1.75304e-05
1.17452e-08
1.75307e-05
2.75053e-08
1.75281e-05
3.35748e-08
1.75285e-05
3.11486e-08
1.75312e-05
4.82114e-08
1.75299e-05
6.65584e-08
1.75264e-05
6.46566e-08
1.75276e-05
6.04569e-08
1.75333e-05
7.34066e-08
1.75368e-05
9.14832e-08
1.75358e-05
9.54827e-08
1.75336e-05
8.30552e-08
1.75346e-05
6.93671e-08
1.7539e-05
6.61991e-08
1.75441e-05
7.08862e-08
1.75472e-05
7.53095e-08
1.75486e-05
7.30968e-08
1.75488e-05
6.68781e-08
1.7549e-05
5.70764e-08
5.01703e-08
1.7552e-05
1.8368e-05
1.20489e-08
1.83689e-05
2.66186e-08
1.83667e-05
3.58388e-08
1.8366e-05
3.17805e-08
1.83693e-05
4.49548e-08
1.83696e-05
6.62855e-08
1.8366e-05
6.82356e-08
1.83657e-05
6.0722e-08
1.83711e-05
6.80052e-08
1.83762e-05
8.63918e-08
1.8377e-05
9.46478e-08
1.83746e-05
8.54919e-08
1.83744e-05
6.95338e-08
1.83778e-05
6.28533e-08
1.83833e-05
6.53853e-08
1.83874e-05
7.12284e-08
1.83893e-05
7.11612e-08
1.83901e-05
6.61099e-08
1.83896e-05
5.7542e-08
4.85514e-08
1.83912e-05
1.92459e-05
1.2581e-08
1.92471e-05
2.54011e-08
1.92454e-05
3.74913e-08
1.92439e-05
3.33331e-08
1.92471e-05
4.17658e-08
1.9249e-05
6.43484e-08
1.92461e-05
7.11328e-08
1.92445e-05
6.23317e-08
1.92489e-05
6.36409e-08
1.92551e-05
8.01774e-08
1.92579e-05
9.18244e-08
1.92562e-05
8.72143e-08