/*--------------------------------*- C++ -*----------------------------------*\
| =========                 |                                                 |
| \\      /  F ield         | OpenFOAM: The Open Source CFD Toolbox           |
|  \\    /   O peration     | Version:  2106                                  |
|   \\  /    A nd           | Website:  www.openfoam.com                      |
|    \\/     M anipulation  |                                                 |
\*---------------------------------------------------------------------------*/
FoamFile
{
    version     2.0;
    format      ascii;
    arch        "LSB;label=32;scalar=64";
    class       volScalarField;
    location    "0.38";
    object      p;
}
// * * * * * * * * * * * * * * * * * * * * * * * * * * * * * * * * * * * * * //

dimensions      [0 2 -2 0 0 0 0];

internalField   nonuniform List<scalar> 
9600
(
-3.27649e-11
0.00404215
0.000959831
0.00327441
0.00466408
0.00420776
0.00453833
0.0048994
0.00467046
0.0060014
0.00619555
0.00731676
0.00643584
0.0068755
0.00623269
0.00770192
0.00800552
0.00991352
0.011296
0.0165768
-3.29998e-06
0.00404591
0.000968885
0.00327326
0.004657
0.00420503
0.00454054
0.00490034
0.00467497
0.00598145
0.00619585
0.00725888
0.0064337
0.0068717
0.00624409
0.00769173
0.00802414
0.0098717
0.0113384
0.0159658
-6.21146e-06
0.00405438
0.000978692
0.00326708
0.00464942
0.00420455
0.00454469
0.00489888
0.00467791
0.00595733
0.00619651
0.00721032
0.00643532
0.00686539
0.00625682
0.0076814
0.00804616
0.00983479
0.0113258
0.0153811
-6.92284e-06
0.0040619
0.000988232
0.00326247
0.00464212
0.00420688
0.00454963
0.00489388
0.00468144
0.00593152
0.00619557
0.00716747
0.00643808
0.00685472
0.00627043
0.00766847
0.00806827
0.00976756
0.0113012
0.0148362
-4.93947e-06
0.00406621
0.000999965
0.00326168
0.0046325
0.00421081
0.00455464
0.00488668
0.00468707
0.00590372
0.00619313
0.00712678
0.00644007
0.0068405
0.00628483
0.00765132
0.00808924
0.00969193
0.0112574
0.0143313
8.16896e-08
0.00406691
0.00101567
0.00326352
0.0046189
0.00421494
0.00455911
0.00487874
0.004695
0.00587453
0.00618984
0.00708543
0.0064411
0.0068238
0.00630027
0.00763024
0.00810984
0.00960855
0.0111919
0.0138579
8.26543e-06
0.00406401
0.00103595
0.00326674
0.00460102
0.0042181
0.00456262
0.00487096
0.00470514
0.00584495
0.00618605
0.00704193
0.00644141
0.00680537
0.00631674
0.00760564
0.00812847
0.00951864
0.0111036
0.0134125
1.93152e-05
0.00405786
0.00106089
0.00327087
0.00457935
0.00421964
0.00456522
0.00486372
0.00471722
0.00581549
0.00618202
0.00699582
0.00644106
0.00678535
0.00633375
0.00757797
0.00814317
0.00942401
0.0109918
0.0129923
3.26572e-05
0.00404934
0.00109029
0.00327553
0.00455469
0.00421948
0.00456723
0.00485696
0.00473077
0.00578616
0.0061779
0.00694725
0.00644003
0.00676378
0.00635066
0.00754786
0.00815215
0.00932577
0.0108564
0.0125937
4.76988e-05
0.00403949
0.00112365
0.00328035
0.00452797
0.0042178
0.00456902
0.00485032
0.00474527
0.00575666
0.00617372
0.00689664
0.00643815
0.00674089
0.00636668
0.00751609
0.00815373
0.0092245
0.0106983
0.012212
6.39835e-05
0.00402906
0.00116023
0.00328509
0.00450005
0.00421474
0.00457089
0.00484348
0.00476032
0.0057266
0.00616943
0.00684446
0.00643517
0.0067171
0.00638085
0.0074834
0.00814654
0.00912022
0.0105192
0.0118421
8.12418e-05
0.00401846
0.00119928
0.0032896
0.00447158
0.00421034
0.00457309
0.00483615
0.00477562
0.00569567
0.0061649
0.00679116
0.00643077
0.00669289
0.00639204
0.00745031
0.00812958
0.00901218
0.0103217
0.0114796
9.93725e-05
0.00400777
0.00124018
0.00329377
0.00444302
0.00420458
0.00457577
0.00482817
0.00479099
0.00566369
0.00615996
0.00673717
0.00642445
0.00666883
0.00639928
0.00741711
0.00810207
0.00889955
0.0101099
0.0111219
0.000118388
0.00399696
0.00128252
0.00329752
0.00441478
0.00419733
0.00457905
0.00481941
0.00480635
0.0056306
0.00615439
0.00668295
0.00641553
0.00664563
0.00640183
0.00738348
0.00806353
0.00877949
0.00988826
0.0107683
0.000138357
0.00398591
0.00132605
0.00330078
0.00438712
0.00418846
0.00458299
0.00480981
0.00482159
0.00559647
0.0061479
0.00662904
0.00640326
0.00662374
0.00639907
0.00734856
0.00801467
0.00864933
0.00965999
0.0104195
0.000159369
0.00397451
0.00137068
0.00330343
0.0043603
0.0041778
0.00458764
0.00479932
0.00483661
0.00556146
0.00614006
0.00657614
0.00638692
0.00660333
0.0063907
0.00731086
0.00795558
0.00850708
0.00942575
0.0100766
0.000181515
0.00396264
0.00141638
0.00330532
0.00433453
0.00416517
0.00459302
0.00478795
0.00485124
0.00552579
0.00613035
0.006525
0.00636578
0.00658441
0.00637689
0.00726843
0.00789415
0.00835242
0.00918521
0.00974135
0.000204888
0.00395018
0.00146318
0.00330629
0.00431002
0.00415045
0.0045991
0.00477573
0.00486529
0.0054898
0.00611815
0.00647636
0.00633936
0.00656655
0.00635828
0.00721914
0.0078283
0.00818558
0.00893735
0.0094154
0.000229583
0.003937
0.00151111
0.00330614
0.00428701
0.0041335
0.00460582
0.00476273
0.00487846
0.00545396
0.00610276
0.00643078
0.00630741
0.00654888
0.00633615
0.00716047
0.00775786
0.00800951
0.00868066
0.00909934
0.000255696
0.00392297
0.00156021
0.00330469
0.00426568
0.00411421
0.00461312
0.00474906
0.00489035
0.00541886
0.00608342
0.00638864
0.00627012
0.00653006
0.00631227
0.00709039
0.00768163
0.00782844
0.00841417
0.00879265
0.000283328
0.00390795
0.00161048
0.00330173
0.00424625
0.0040925
0.00462085
0.00473495
0.00490046
0.00538513
0.00605949
0.00635006
0.00622806
0.0065082
0.00628816
0.00700832
0.00759791
0.00764608
0.00813808
0.00849331
0.000312582
0.0038918
0.00166195
0.00329703
0.00422885
0.00406842
0.00462878
0.00472073
0.00490823
0.00535335
0.00603054
0.00631487
0.00618208
0.00648144
0.00626212
0.00691422
0.00750447
0.00746567
0.00785413
0.00819812
0.000343555
0.00387438
0.00171463
0.00329039
0.00421363
0.00404198
0.00463664
0.00470678
0.00491301
0.00532405
0.00599635
0.00628249
0.00613332
0.00644797
0.00623842
0.00680916
0.00739894
0.00728977
0.0075656
0.00790346
0.000376343
0.00385558
0.00176848
0.00328164
0.00420071
0.00401329
0.00464403
0.00469361
0.00491414
0.00529762
0.0059569
0.00625201
0.00608313
0.00640602
0.00621419
0.00669537
0.00727889
0.00711898
0.00727688
0.00760698
0.000411035
0.00383526
0.00182347
0.00327065
0.00419015
0.00398253
0.00465047
0.00468176
0.004911
0.00527428
0.00591247
0.00622211
0.006033
0.00635428
0.006188
0.00657577
0.00714282
0.00695123
0.00699242
0.00730869
0.000447712
0.00381334
0.0018795
0.00325727
0.00418197
0.00394996
0.00465543
0.00467189
0.00490302
0.00525408
0.00586352
0.00619131
0.00598425
0.00629196
0.00615776
0.00645345
0.00699139
0.00678384
0.00671461
0.00700951
0.000486438
0.00378977
0.00193644
0.00324139
0.00417614
0.00391594
0.00465825
0.00466459
0.00488975
0.00523678
0.00581098
0.00615789
0.00593766
0.00621887
0.00612116
0.00633088
0.00682619
0.00661477
0.00644479
0.00670914
0.00052725
0.00376456
0.0019942
0.00322289
0.00417259
0.00388095
0.00465825
0.00466049
0.00487076
0.00522184
0.00575613
0.00611999
0.00589386
0.00613554
0.00607532
0.00621001
0.00664935
0.00644245
0.00618516
0.00640673
0.000570151
0.00373772
0.00205264
0.00320168
0.00417118
0.0038455
0.00465463
0.00466027
0.0048458
0.00520843
0.00570036
0.00607576
0.00585306
0.00604323
0.00601694
0.00609198
0.00646437
0.00626491
0.00593748
0.0061034
0.000615137
0.00370934
0.00211164
0.00317767
0.00417172
0.00381025
0.00464646
0.00466452
0.00481488
0.00519544
0.00564521
0.00602315
0.00581454
0.00594492
0.00594327
0.00597543
0.00627625
0.00608107
0.00570135
0.00580329
0.000662179
0.00367956
0.0021711
0.00315077
0.00417396
0.00377596
0.00463278
0.00467368
0.00477828
0.00518126
0.00559267
0.00596038
0.0057763
0.00584504
0.00585371
0.00585744
0.00608972
0.00589267
0.00547395
0.00551033
0.000711207
0.00364851
0.00223094
0.00312083
0.00417763
0.00374344
0.00461264
0.00468822
0.0047365
0.00516354
0.00554515
0.00588706
0.00573465
0.00574734
0.00574986
0.00573374
0.00590641
0.00570352
0.00525272
0.00522499
0.000762114
0.00361633
0.00229116
0.00308771
0.00418232
0.00371367
0.00458489
0.00470831
0.00469066
0.00513901
0.00550447
0.00580429
0.00568467
0.00565394
0.0056354
0.0056006
0.0057242
0.00551784
0.00503992
0.00494538
0.000814788
0.00358315
0.00235187
0.00305125
0.00418736
0.00368794
0.00454826
0.00473357
0.00464232
0.00510407
0.00547103
0.00571496
0.00562127
0.00556447
0.00551636
0.00545756
0.00553935
0.00533674
0.00484216
0.00467294
0.000869114
0.00354907
0.00241328
0.00301131
0.00419176
0.00366766
0.00450222
0.00476284
0.00459331
0.0050556
0.00544384
0.00562402
0.00554081
0.00547635
0.00539883
0.00530795
0.00534788
0.00515532
0.00466378
0.00441821
0.000924996
0.00351414
0.00247566
0.00296796
0.0041943
0.00365432
0.00444587
0.00479412
0.00453201
0.00499134
0.00541976
0.0055374
0.00544276
0.00538447
0.0052862
0.00515593
0.00514974
0.00496775
0.0045006
0.00419415
0.000982369
0.00347835
0.00253935
0.00292147
0.00419327
0.00364958
0.00437908
0.0048251
0.00450041
0.00491051
0.00539305
0.00546049
0.00532929
0.00528205
0.00517904
0.00500645
0.00494812
0.00477109
0.00434218
0.00400467
0.00104122
0.00344154
0.00260463
0.00287228
0.00418665
0.00365494
0.00430224
0.00485354
0.00448187
0.00481392
0.00535635
0.00539645
0.00520556
0.00516287
0.00507492
0.00486554
0.0047467
0.00456641
0.00418037
0.00384054
0.00110157
0.00340346
0.00267146
0.00282095
0.00417226
0.00367112
0.00421749
0.00487279
0.00447872
0.00470472
0.0053023
0.005345
0.00507948
0.00502369
0.00496875
0.00473865
0.00455024
0.00435468
0.00401272
0.00369134
0.0011634
0.00336384
0.00273961
0.00276812
0.00414798
0.00369854
0.00412802
0.00487821
0.00449322
0.0045886
0.00522516
0.0053032
0.00496007
0.00486541
0.00485259
0.00462709
0.00436644
0.00413655
0.00383699
0.00355181
0.00122686
0.00332228
0.0028087
0.00272019
0.00411173
0.00373682
0.00403767
0.00486554
0.00452142
0.00447273
0.00512141
0.00526532
0.00485557
0.00469302
0.00471743
0.00452582
0.00420591
0.00391889
0.0036469
0.00341592
0.00129205
0.00327852
0.00287828
0.00267704
0.0040617
0.00378924
0.00395093
0.00483183
0.00455965
0.00436488
0.00499072
0.00522265
0.0047712
0.00451421
0.0045572
0.00442568
0.00407569
0.00371581
0.00344017
0.00327108
0.001359
0.0032325
0.00294736
0.00264109
0.00399696
0.00383732
0.00387185
0.00477592
0.00460242
0.004272
0.00483585
0.00516525
0.00470801
0.0043395
0.00437199
0.00431494
0.00397106
0.00354265
0.00322923
0.00310353
0.00142772
0.00318436
0.00301427
0.00261452
0.00391767
0.00388421
0.00380382
0.00469844
0.00464397
0.00419936
0.00466134
0.00508411
0.00466313
0.00418032
0.00416728
0.00418324
0.00388118
0.00340764
0.00303423
0.00291379
0.00149814
0.00313434
0.00307724
0.00259918
0.00382533
0.00392585
0.00374893
0.00460124
0.00467817
0.00415088
0.0044741
0.00497139
0.00463002
0.00404763
0.00395157
0.00402464
0.00379512
0.00330586
0.00287117
0.0027211
0.00157017
0.00308259
0.00313418
0.00259658
0.00372302
0.00395773
0.00370781
0.00448741
0.00469809
0.00412784
0.00428401
0.00482263
0.00459773
0.00394852
0.00373618
0.00383671
0.00370262
0.00322999
0.00274464
0.00254536
0.00164353
0.00303014
0.00318291
0.00260716
0.00361461
0.00397604
0.0036797
0.00436067
0.00469786
0.00412834
0.00410285
0.00463899
0.00455231
0.00388293
0.00353659
0.00362205
0.00359097
0.00317491
0.00265328
0.00239694
0.00171784
0.00297781
0.00322198
0.0026304
0.00350395
0.00397817
0.0036632
0.00422456
0.00467213
0.00414891
0.00394297
0.00442629
0.00447849
0.00384321
0.00337031
0.00339298
0.00344678
0.00312983
0.00259913
0.00227916
0.00179275
0.00292654
0.00325018
0.00266498
0.00339477
0.00396223
0.00365659
0.00408317
0.00461577
0.00418214
0.00381626
0.0041945
0.00436508
0.00381658
0.00324651
0.00316775
0.00326708
0.00307404
0.00258041
0.00219975
0.00186767
0.00287753
0.00326686
0.00270831
0.00329081
0.0039279
0.00365718
0.0039419
0.00452642
0.00421611
0.00372871
0.00395873
0.00420966
0.00378522
0.00316113
0.00296672
0.00306621
0.00298817
0.00258242
0.00216829
0.00194203
0.00283172
0.00327185
0.00275735
0.00319494
0.00387574
0.00366159
0.00380643
0.00440416
0.00423827
0.00367989
0.00373714
0.00401807
0.00373175
0.0031043
0.00280088
0.00286278
0.00287031
0.00258048
0.00218018
0.00201518
0.00279005
0.00326525
0.00280918
0.00310938
0.0038063
0.00366652
0.00368391
0.00425174
0.00423481
0.00366568
0.00354732
0.00379972
0.00364485
0.00306416
0.00266997
0.00267066
0.00273308
0.00255744
0.00221687
0.00208635
0.00275329
0.00324761
0.00286055
0.00303624
0.00372163
0.00366772
0.00358045
0.00407567
0.00419308
0.0036751
0.00340222
0.00357048
0.00351923
0.00302468
0.00257128
0.00249631
0.00258768
0.00251353
0.00225693
0.00215486
0.0027218
0.00322024
0.00290825
0.00297592
0.0036245
0.00366048
0.00349726
0.0038873
0.00410869
0.00368764
0.00330346
0.00335581
0.00336068
0.00296807
0.00249905
0.00234391
0.00243802
0.00245456
0.00228825
0.00222003
0.00269575
0.00318455
0.00294949
0.00292864
0.00351806
0.00363998
0.00343404
0.00369995
0.00398349
0.00368277
0.00324453
0.00317591
0.00318469
0.00288488
0.00243903
0.00221771
0.00228676
0.00237957
0.00230768
0.00228121
0.00267506
0.00314209
0.00298227
0.00289398
0.00340642
0.00360135
0.00338792
0.00352769
0.00382232
0.00364668
0.00321251
0.00303556
0.00301427
0.00278153
0.0023757
0.00211463
0.00214019
0.0022837
0.00231049
0.00233785
0.00265946
0.00309448
0.00300495
0.00287076
0.00329356
0.00354279
0.00335247
0.00337999
0.00363802
0.00357038
0.00318706
0.00293358
0.0028641
0.0026712
0.00230589
0.00202402
0.00200367
0.00216569
0.00228588
0.00238937
0.0026485
0.00304347
0.00301619
0.00285705
0.00318377
0.00346447
0.00331915
0.00325856
0.00345058
0.00345591
0.00314777
0.00286298
0.0027411
0.00256752
0.00223518
0.00193911
0.0018764
0.00203055
0.00222225
0.00243526
0.00264158
0.00299024
0.00301552
0.00284974
0.00308156
0.00336846
0.00327928
0.00316158
0.00327528
0.00331222
0.00308086
0.00280483
0.00264679
0.00247941
0.00217387
0.00186137
0.00175458
0.00188461
0.00211589
0.00247512
0.00263791
0.00293855
0.0030029
0.00284562
0.00299025
0.00325877
0.00322478
0.00308492
0.0031207
0.00315491
0.00298643
0.00274064
0.00257229
0.00240971
0.00213006
0.00180111
0.00163929
0.00173069
0.00197165
0.00250874
0.00263664
0.00288887
0.00297847
0.00284131
0.00291205
0.00314152
0.00315192
0.00301982
0.00299174
0.00299875
0.00286956
0.00266
0.00250237
0.00235489
0.00210481
0.00176911
0.00154191
0.00157288
0.00179832
0.00253601
0.00263669
0.00284237
0.00294342
0.00283319
0.00284671
0.00302413
0.00306165
0.00295338
0.00288674
0.00285614
0.00274031
0.00256208
0.00242432
0.00230328
0.00209342
0.00176845
0.00147803
0.00142398
0.00160483
0.002557
0.00263686
0.00279987
0.00289986
0.00281776
0.00279239
0.0029134
0.00295834
0.00287642
0.00279914
0.0027361
0.00261191
0.00244951
0.002332
0.00224348
0.00208262
0.00179165
0.00145835
0.00130302
0.00140757
0.00257195
0.00263594
0.00276163
0.00285045
0.00279315
0.00274619
0.00281361
0.00284783
0.00278684
0.00271581
0.00263717
0.00249805
0.00233128
0.00222506
0.00216747
0.00205925
0.00182378
0.00148043
0.00122732
0.00122863
0.00258124
0.00263284
0.00272736
0.00279823
0.00275895
0.00270358
0.00272598
0.00273765
0.00268726
0.00262731
0.00255203
0.00240612
0.0022215
0.00210704
0.0020723
0.00201422
0.00184411
0.0015316
0.00120691
0.00109
0.00258548
0.00262674
0.00269618
0.00274599
0.00271622
0.0026601
0.0026493
0.00263459
0.00258158
0.00253093
0.00246903
0.00233127
0.00213272
0.00199057
0.00195979
0.00194326
0.00183742
0.00158596
0.00123647
0.0010093
0.00258529
0.00261723
0.00266679
0.00269576
0.00266691
0.00261282
0.00258119
0.00254231
0.00247594
0.00242756
0.00238127
0.00226498
0.00206662
0.00189097
0.00183804
0.00184774
0.00179722
0.00161828
0.0012971
0.00099281
0.00258144
0.00260428
0.00263793
0.00264858
0.00261372
0.00256097
0.00251769
0.00246051
0.00237773
0.00232095
0.00228613
0.0021969
0.00201541
0.00181735
0.001723
0.00173314
0.00172512
0.00161375
0.00135609
0.00102955
0.00257418
0.00258803
0.00260851
0.00260453
0.00255981
0.00250515
0.00245544
0.0023872
0.00229075
0.002217
0.00218428
0.00212163
0.00196909
0.00176648
0.00162929
0.00161242
0.00162774
0.00157097
0.00138841
0.00109259
0.00256375
0.00256904
0.00257769
0.0025629
0.00250789
0.00244712
0.00239277
0.00231975
0.00221454
0.00212269
0.00208048
0.00203677
0.0019182
0.00172936
0.00156265
0.00150251
0.0015154
0.00149756
0.00138279
0.00114932
0.00255045
0.00254785
0.00254561
0.00252272
0.00245926
0.00238916
0.00232942
0.00225528
0.00214695
0.00204088
0.00198136
0.00194434
0.0018575
0.00169544
0.00151823
0.00141585
0.00140394
0.00140397
0.0013409
0.0011767
0.0025347
0.00252595
0.00251288
0.00248314
0.00241393
0.00233379
0.00226656
0.00219216
0.00208563
0.00197067
0.00189301
0.00185063
0.00178589
0.00165568
0.00148696
0.00135593
0.00130813
0.00130434
0.0012733
0.00116722
0.00251701
0.0025033
0.00248024
0.00244392
0.00237143
0.00228275
0.00220616
0.00213015
0.00202812
0.0019099
0.00181732
0.00176244
0.00170774
0.00160621
0.00145841
0.00131667
0.00123616
0.00121266
0.0011927
0.00112664
0.00249792
0.00248035
0.00244872
0.00240555
0.00233127
0.00223668
0.00215017
0.00207015
0.00197285
0.0018564
0.00175348
0.00168461
0.00162976
0.00154836
0.00142529
0.00128881
0.00118721
0.00113853
0.00111318
0.00106753
0.00247814
0.00245763
0.00241909
0.00236893
0.0022931
0.00219524
0.00210016
0.00201408
0.00191963
0.00180779
0.00169962
0.00161857
0.00155779
0.00148723
0.00138562
0.00126324
0.00115402
0.00108426
0.0010446
0.00100325
0.00245854
0.00243572
0.00239192
0.00233514
0.00225737
0.00215799
0.00205656
0.00196382
0.00186962
0.00176282
0.00165399
0.00156393
0.00149534
0.00142821
0.00134157
0.00123481
0.00112826
0.00104558
0.000990715
0.000944414
0.00244
0.00241534
0.00236773
0.00230529
0.00222519
0.00212508
0.00201928
0.00192042
0.00182456
0.00172159
0.00161477
0.00151951
0.00144345
0.00137553
0.00129787
0.00120399
0.00110399
0.0010158
0.000948495
0.000893638
0.00242353
0.00239738
0.00234712
0.00228017
0.00219759
0.0020973
0.00198882
0.00188466
0.00178615
0.00168581
0.00158205
0.00148446
0.00140193
0.00133097
0.00125863
0.00117528
0.00108296
0.000992529
0.000913974
0.000847389
0.00241
0.00238274
0.0023308
0.00226043
0.00217546
0.00207539
0.00196595
0.00185806
0.00175666
0.00165762
0.00155705
0.00145914
0.00137152
0.00129577
0.00122462
0.00114886
0.00106552
0.000979384
0.000897861
0.000824105
0.00239978
0.0023712
0.00231803
0.00224486
0.00215682
0.00205574
0.00194576
0.00183561
0.00173141
0.00163187
0.00153321
0.00143645
0.00134701
0.00126781
0.00119495
0.00112099
0.0010415
0.000958032
0.000875809
0.000798543
0.0197344
0.0133964
0.0047564
-0.00177793
-0.0039561
-0.003465
-0.00255086
-0.00197609
-0.001769
-0.00171467
-0.00167435
-0.00169397
-0.00177977
-0.00187009
-0.00196633
-0.00207443
-0.00216717
-0.00223951
-0.00233656
-0.00250645
-0.00270583
-0.00285818
-0.00296259
-0.00305726
-0.00316336
-0.00325822
-0.00332393
-0.00341259
-0.00353329
-0.00362234
-0.00369194
-0.00380405
-0.0039455
-0.00406139
-0.00415056
-0.0042541
-0.00437675
-0.00451054
-0.00465586
-0.00478007
-0.00488558
-0.0050242
-0.00516668
-0.00526226
-0.00535533
-0.0054782
-0.00558751
-0.00567194
-0.00576372
-0.00586341
-0.00595396
-0.00604285
-0.00614382
-0.00625032
-0.00635652
-0.00646198
-0.00656725
-0.00667058
-0.00677866
-0.00689004
-0.00700176
-0.00711374
-0.00723022
-0.00735023
-0.00747059
-0.00759422
-0.00771987
-0.00785043
-0.0079814
-0.00811723
-0.00825447
-0.00839593
-0.00853995
-0.00868647
-0.00883763
-0.00898968
-0.00914779
-0.00930657
-0.00947075
-0.00963782
-0.00980705
-0.00998325
-0.010158
-0.0103423
-0.0105252
-0.0107146
-0.0109093
-0.0111013
-0.0113077
-0.0115056
-0.0117169
-0.0119292
-0.0121384
-0.0123647
-0.012581
-0.0128055
-0.013042
-0.0132686
-0.0135012
-0.0137526
0.0188902
0.0132286
0.00483732
-0.00163044
-0.00386312
-0.00342085
-0.00252502
-0.00195879
-0.00175643
-0.00170468
-0.00166571
-0.00168631
-0.00177304
-0.00186408
-0.00196098
-0.00206977
-0.00216309
-0.00223583
-0.00233315
-0.00250335
-0.00270314
-0.00285581
-0.00296043
-0.00305527
-0.00316155
-0.00325659
-0.00332238
-0.0034111
-0.00353196
-0.00362114
-0.00369076
-0.00380293
-0.00394449
-0.00406048
-0.0041497
-0.00425328
-0.00437598
-0.00450982
-0.00465521
-0.0047795
-0.00488503
-0.00502368
-0.00516625
-0.00526188
-0.00535496
-0.00547787
-0.00558724
-0.0056717
-0.0057635
-0.00586322
-0.0059538
-0.0060427
-0.00614369
-0.0062502
-0.00635643
-0.00646189
-0.00656718
-0.00667052
-0.00677861
-0.00689
-0.00700173
-0.00711371
-0.0072302
-0.00735021
-0.00747057
-0.00759421
-0.00771986
-0.00785042
-0.0079814
-0.00811722
-0.00825447
-0.00839593
-0.00853995
-0.00868647
-0.00883763
-0.00898968
-0.00914779
-0.00930657
-0.00947075
-0.00963782
-0.00980705
-0.00998325
-0.010158
-0.0103423
-0.0105252
-0.0107146
-0.0109093
-0.0111013
-0.0113077
-0.0115056
-0.0117169
-0.0119292
-0.0121384
-0.0123647
-0.012581
-0.0128055
-0.013042
-0.0132686
-0.0135012
-0.0137526
0.01812
0.0130777
0.00501678
-0.00135073
-0.00370187
-0.00336006
-0.00249511
-0.00193736
-0.00174032
-0.00169241
-0.00165599
-0.0016784
-0.00176642
-0.0018582
-0.0019556
-0.00206493
-0.00215885
-0.00223212
-0.00232983
-0.0025004
-0.00270057
-0.00285351
-0.00295835
-0.0030534
-0.00315988
-0.0032551
-0.00332094
-0.00340973
-0.00353076
-0.00362004
-0.00368967
-0.00380191
-0.00394359
-0.00405966
-0.0041489
-0.00425252
-0.00437529
-0.00450916
-0.00465462
-0.00477897
-0.00488451
-0.0050232
-0.00516587
-0.00526152
-0.0053546
-0.00547758
-0.00558699
-0.00567146
-0.00576329
-0.00586305
-0.00595365
-0.00604256
-0.00614356
-0.0062501
-0.00635634
-0.00646182
-0.00656712
-0.00667046
-0.00677856
-0.00688996
-0.00700169
-0.00711368
-0.00723017
-0.00735019
-0.00747056
-0.00759419
-0.00771984
-0.00785041
-0.00798139
-0.00811722
-0.00825446
-0.00839593
-0.00853994
-0.00868647
-0.00883763
-0.00898968
-0.00914779
-0.00930657
-0.00947075
-0.00963782
-0.00980705
-0.00998325
-0.010158
-0.0103423
-0.0105252
-0.0107146
-0.0109093
-0.0111013
-0.0113077
-0.0115056
-0.0117169
-0.0119292
-0.0121384
-0.0123647
-0.012581
-0.0128055
-0.013042
-0.0132687
-0.0135012
-0.0137526
0.0173967
0.0129222
0.0052391
-0.00100217
-0.00348271
-0.0032728
-0.0024495
-0.00190384
-0.00171539
-0.00167405
-0.00164242
-0.00166828
-0.00175853
-0.00185148
-0.00194928
-0.00205877
-0.00215316
-0.00222728
-0.00232572
-0.0024967
-0.00269713
-0.00285038
-0.00295562
-0.00305105
-0.00315783
-0.00325329
-0.00331926
-0.00340813
-0.00352932
-0.00361873
-0.00368844
-0.00380078
-0.00394256
-0.00405868
-0.00414795
-0.00425165
-0.00437449
-0.00450839
-0.00465392
-0.00477835
-0.00488389
-0.00502264
-0.0051654
-0.00526106
-0.00535416
-0.00547721
-0.00558668
-0.00567116
-0.00576301
-0.00586282
-0.00595344
-0.00604237
-0.0061434
-0.00624996
-0.00635622
-0.00646171
-0.00656703
-0.00667038
-0.00677849
-0.0068899
-0.00700164
-0.00711364
-0.00723014
-0.00735016
-0.00747053
-0.00759417
-0.00771983
-0.0078504
-0.00798138
-0.00811721
-0.00825446
-0.00839592
-0.00853994
-0.00868646
-0.00883763
-0.00898968
-0.00914779
-0.00930657
-0.00947075
-0.00963782
-0.00980705
-0.00998325
-0.010158
-0.0103423
-0.0105252
-0.0107146
-0.0109093
-0.0111013
-0.0113077
-0.0115056
-0.0117169
-0.0119292
-0.0121384
-0.0123647
-0.012581
-0.0128055
-0.013042
-0.0132687
-0.0135012
-0.0137527
0.0166805
0.0127358
0.00546295
-0.000636441
-0.0032415
-0.00317274
-0.00239566
-0.00186172
-0.00168213
-0.00164878
-0.00162383
-0.0016547
-0.00174822
-0.00184311
-0.0019415
-0.0020508
-0.00214555
-0.00222094
-0.00232053
-0.00249175
-0.00269204
-0.00284558
-0.00295159
-0.0030477
-0.00315493
-0.00325079
-0.00331705
-0.00340602
-0.00352731
-0.00361693
-0.00368691
-0.00379942
-0.0039412
-0.00405732
-0.00414669
-0.00425055
-0.00437347
-0.00450735
-0.00465293
-0.00477747
-0.00488307
-0.00502186
-0.00516468
-0.00526038
-0.00535353
-0.00547668
-0.0055862
-0.0056707
-0.00576261
-0.00586247
-0.00595313
-0.00604208
-0.00614315
-0.00624975
-0.00635603
-0.00646156
-0.0065669
-0.00667026
-0.00677839
-0.00688981
-0.00700157
-0.00711358
-0.00723008
-0.00735012
-0.00747049
-0.00759414
-0.0077198
-0.00785038
-0.00798136
-0.0081172
-0.00825445
-0.00839591
-0.00853994
-0.00868646
-0.00883762
-0.00898967
-0.00914779
-0.00930657
-0.00947075
-0.00963782
-0.00980705
-0.00998325
-0.010158
-0.0103423
-0.0105252
-0.0107146
-0.0109093
-0.0111013
-0.0113077
-0.0115056
-0.0117169
-0.0119292
-0.0121384
-0.0123647
-0.012581
-0.0128055
-0.013042
-0.0132687
-0.0135012
-0.0137528
0.0159703
0.0125164
0.00567712
-0.000268435
-0.00299016
-0.00306755
-0.00234083
-0.00181705
-0.00164459
-0.0016191
-0.00160156
-0.00163818
-0.00173559
-0.00183301
-0.00193226
-0.00204117
-0.00213618
-0.00221328
-0.00231442
-0.00248559
-0.00268507
-0.00283872
-0.00294582
-0.00304297
-0.00315083
-0.00324734
-0.00331417
-0.00340325
-0.00352447
-0.00361441
-0.00368496
-0.00379773
-0.00393939
-0.00405541
-0.00414497
-0.00424911
-0.00437211
-0.00450589
-0.00465148
-0.00477621
-0.00488194
-0.00502073
-0.00516357
-0.00525936
-0.00535263
-0.00547586
-0.00558543
-0.00567
-0.00576199
-0.00586192
-0.00595262
-0.00604163
-0.00614276
-0.00624941
-0.00635573
-0.00646129
-0.00656667
-0.00667007
-0.00677821
-0.00688966
-0.00700144
-0.00711347
-0.00722999
-0.00735004
-0.00747043
-0.00759409
-0.00771975
-0.00785034
-0.00798133
-0.00811717
-0.00825443
-0.0083959
-0.00853993
-0.00868645
-0.00883762
-0.00898967
-0.00914778
-0.00930657
-0.00947075
-0.00963782
-0.00980705
-0.00998325
-0.010158
-0.0103423
-0.0105252
-0.0107146
-0.0109093
-0.0111013
-0.0113077
-0.0115056
-0.0117169
-0.0119292
-0.0121384
-0.0123647
-0.012581
-0.0128055
-0.013042
-0.0132687
-0.0135012
-0.0137529
0.0152729
0.0122679
0.00587809
9.87071e-05
-0.00273004
-0.00295792
-0.00228669
-0.00177205
-0.00160474
-0.0015867
-0.00157691
-0.00161969
-0.00172132
-0.00182159
-0.00192184
-0.0020303
-0.00212561
-0.00220478
-0.00230781
-0.00247861
-0.00267656
-0.00282994
-0.00293828
-0.00303672
-0.00314536
-0.00324278
-0.00331053
-0.00339975
-0.0035207
-0.00361104
-0.00368249
-0.00379562
-0.003937
-0.00405287
-0.00414272
-0.00424727
-0.00437034
-0.00450388
-0.00464939
-0.00477442
-0.00488039
-0.00501912
-0.0051619
-0.00525786
-0.00535134
-0.00547464
-0.00558426
-0.00566895
-0.00576108
-0.00586108
-0.00595185
-0.00604094
-0.00614217
-0.00624888
-0.00635526
-0.00646088
-0.00656632
-0.00666976
-0.00677794
-0.00688942
-0.00700123
-0.00711329
-0.00722984
-0.00734991
-0.00747031
-0.00759399
-0.00771967
-0.00785027
-0.00798127
-0.00811713
-0.00825439
-0.00839587
-0.0085399
-0.00868643
-0.0088376
-0.00898966
-0.00914778
-0.00930657
-0.00947075
-0.00963782
-0.00980704
-0.00998325
-0.010158
-0.0103423
-0.0105252
-0.0107146
-0.0109093
-0.0111013
-0.0113077
-0.0115056
-0.0117169
-0.0119292
-0.0121384
-0.0123647
-0.012581
-0.0128055
-0.013042
-0.0132686
-0.0135013
-0.0137531
0.0145951
0.0119928
0.00606181
0.000463522
-0.00246003
-0.002842
-0.00223269
-0.00172725
-0.00156329
-0.00155217
-0.00155048
-0.00159986
-0.00170599
-0.00180925
-0.00191056
-0.00201856
-0.00211425
-0.00219576
-0.00230092
-0.00247118
-0.0026671
-0.00281983
-0.00292935
-0.00302915
-0.00313862
-0.00323715
-0.00330616
-0.00339558
-0.00351608
-0.00360688
-0.00367947
-0.00379301
-0.00393399
-0.00404966
-0.00413993
-0.00424504
-0.00436819
-0.00450129
-0.00464657
-0.00477199
-0.00487834
-0.00501693
-0.00515955
-0.00525578
-0.00534958
-0.00547294
-0.00558261
-0.0056675
-0.0057598
-0.00585988
-0.00595074
-0.00603996
-0.0061413
-0.0062481
-0.00635456
-0.00646026
-0.00656578
-0.0066693
-0.00677753
-0.00688905
-0.0070009
-0.00711302
-0.0072296
-0.0073497
-0.00747013
-0.00759384
-0.00771955
-0.00785016
-0.00798118
-0.00811705
-0.00825433
-0.00839581
-0.00853986
-0.0086864
-0.00883758
-0.00898964
-0.00914776
-0.00930656
-0.00947074
-0.00963781
-0.00980704
-0.00998325
-0.010158
-0.0103423
-0.0105252
-0.0107146
-0.0109093
-0.0111013
-0.0113077
-0.0115056
-0.0117169
-0.0119292
-0.0121384
-0.0123647
-0.012581
-0.0128055
-0.013042
-0.0132686
-0.0135013
-0.0137533
0.0139419
0.011692
0.0062239
0.00082493
-0.0021784
-0.00271742
-0.00217811
-0.00168334
-0.00152099
-0.00151588
-0.00152247
-0.0015789
-0.00168983
-0.00179622
-0.00189863
-0.00200617
-0.00210226
-0.00218625
-0.00229369
-0.00246343
-0.00265711
-0.00280894
-0.00291952
-0.00302063
-0.00313091
-0.00323064
-0.00330115
-0.00339084
-0.0035108
-0.00360209
-0.00367599
-0.00378995
-0.00393038
-0.0040458
-0.00413664
-0.00424248
-0.00436573
-0.00449822
-0.00464307
-0.00476891
-0.00487577
-0.00501413
-0.00515649
-0.0052531
-0.00534732
-0.00547071
-0.00558044
-0.00566561
-0.00575814
-0.00585831
-0.00594929
-0.00603867
-0.00614013
-0.00624703
-0.00635358
-0.00645939
-0.00656503
-0.00666865
-0.00677695
-0.00688852
-0.00700044
-0.00711263
-0.00722926
-0.0073494
-0.00746986
-0.00759361
-0.00771935
-0.00785
-0.00798104
-0.00811693
-0.00825423
-0.00839573
-0.00853979
-0.00868634
-0.00883754
-0.0089896
-0.00914774
-0.00930654
-0.00947072
-0.00963781
-0.00980703
-0.00998325
-0.010158
-0.0103423
-0.0105252
-0.0107146
-0.0109093
-0.0111013
-0.0113077
-0.0115056
-0.0117169
-0.0119292
-0.0121384
-0.0123647
-0.012581
-0.0128055
-0.013042
-0.0132686
-0.0135014
-0.0137535
0.0133162
0.0113679
0.00636117
0.00118184
-0.00188424
-0.00258254
-0.00212272
-0.00164124
-0.00147853
-0.0014779
-0.00149272
-0.00155668
-0.0016728
-0.00178256
-0.00188616
-0.00199323
-0.00208966
-0.00217616
-0.00228602
-0.00245532
-0.00264672
-0.00279754
-0.0029091
-0.00301146
-0.0031225
-0.00322348
-0.00329561
-0.00338566
-0.00350503
-0.00359686
-0.00367217
-0.00378654
-0.00392627
-0.00404137
-0.00413289
-0.00423964
-0.00436306
-0.00449481
-0.00463903
-0.00476528
-0.00487272
-0.00501077
-0.00515277
-0.00524983
-0.00534456
-0.00546795
-0.00557774
-0.00566328
-0.0057561
-0.00585639
-0.00594751
-0.00603709
-0.00613868
-0.00624567
-0.00635233
-0.00645826
-0.00656404
-0.0066678
-0.00677618
-0.00688781
-0.00699981
-0.0071121
-0.0072288
-0.00734898
-0.0074695
-0.0075933
-0.00771908
-0.00784976
-0.00798084
-0.00811676
-0.00825408
-0.00839561
-0.00853969
-0.00868626
-0.00883747
-0.00898955
-0.0091477
-0.00930651
-0.0094707
-0.00963779
-0.00980702
-0.00998325
-0.0101579
-0.0103423
-0.0105252
-0.0107146
-0.0109093
-0.0111013
-0.0113077
-0.0115056
-0.0117169
-0.0119292
-0.0121384
-0.0123648
-0.012581
-0.0128055
-0.013042
-0.0132686
-0.0135015