/*--------------------------------*- C++ -*----------------------------------*\
| =========                 |                                                 |
| \\      /  F ield         | OpenFOAM: The Open Source CFD Toolbox           |
|  \\    /   O peration     | Version:  2106                                  |
|   \\  /    A nd           | Website:  www.openfoam.com                      |
|    \\/     M anipulation  |                                                 |
\*---------------------------------------------------------------------------*/
FoamFile
{
    version     2.0;
    format      ascii;
    arch        "LSB;label=32;scalar=64";
    class       volScalarField;
    location    "0.28";
    object      p;
}
// * * * * * * * * * * * * * * * * * * * * * * * * * * * * * * * * * * * * * //

dimensions      [0 2 -2 0 0 0 0];

internalField   nonuniform List<scalar> 
9600
(
-4.43158e-11
0.000372662
0.000837827
0.000781241
0.00166284
0.000951644
0.00212319
0.0035354
0.00192838
0.00074198
0.000527913
0.00182997
0.00154997
0.00244111
0.00328163
0.00439216
0.00457214
0.00729177
0.00854767
0.0139431
3.334e-07
0.000373055
0.000838243
0.000780349
0.00166053
0.000951879
0.00213161
0.00350942
0.00193203
0.000725312
0.000539035
0.00183635
0.00154695
0.00244169
0.0032827
0.00438175
0.0045795
0.007202
0.0085769
0.013305
9.29406e-07
0.000373399
0.000838413
0.000778816
0.00165757
0.000952833
0.00213624
0.0034744
0.00194113
0.00071509
0.000555568
0.00184231
0.00154453
0.00244175
0.00328408
0.00437293
0.00458821
0.00714395
0.00857014
0.0127179
1.7017e-06
0.000373528
0.000838206
0.000777004
0.00165412
0.000952766
0.00213653
0.00343139
0.00194871
0.000711111
0.000574511
0.00184879
0.00154121
0.00243932
0.00328577
0.00436002
0.00459922
0.00705586
0.00853939
0.0121598
2.69314e-06
0.000373427
0.000837701
0.00077485
0.00164979
0.000951849
0.00213543
0.00337892
0.00195367
0.000714322
0.000596021
0.00185319
0.00153611
0.00243427
0.00328762
0.00434258
0.00460814
0.00695768
0.00848861
0.0116373
3.90178e-06
0.000373075
0.000836937
0.000772326
0.00164473
0.000950807
0.00213354
0.00331764
0.00195891
0.00072438
0.0006189
0.00185508
0.00153031
0.00242693
0.00329062
0.00431935
0.00461537
0.00685155
0.00841555
0.0111366
5.25752e-06
0.000372477
0.000835988
0.000769533
0.0016392
0.000949976
0.00213082
0.00324997
0.00196579
0.000739067
0.000642687
0.00185533
0.0015245
0.00241787
0.00329493
0.00429498
0.00461991
0.00673846
0.00831829
0.0106556
6.6907e-06
0.000371675
0.000834931
0.000766562
0.00163334
0.000949443
0.00212734
0.00317806
0.00197419
0.000756319
0.000667319
0.00185455
0.00151873
0.00240752
0.00329995
0.00426843
0.0046199
0.00661931
0.00819586
0.0101943
8.16812e-06
0.000370707
0.000833808
0.000763447
0.00162719
0.000949139
0.00212307
0.00310342
0.00198363
0.000774721
0.000692673
0.00185302
0.0015129
0.00239608
0.00330487
0.00424014
0.00461368
0.00649481
0.00804925
0.00975102
9.68323e-06
0.00036959
0.000832632
0.000760196
0.00162076
0.000948881
0.00211795
0.00302709
0.00199362
0.000793483
0.000718513
0.00185106
0.00150679
0.00238375
0.00330903
0.00421055
0.00459968
0.00636535
0.00788035
0.00932192
1.12406e-05
0.000368317
0.000831402
0.000756803
0.00161402
0.000948482
0.00211197
0.00294972
0.00200367
0.000812245
0.000744541
0.00184906
0.00149996
0.00237102
0.00331164
0.0041799
0.00457677
0.006231
0.0076914
0.00890312
1.28498e-05
0.000366869
0.000830114
0.000753258
0.00160694
0.000947808
0.00210512
0.00287173
0.00201333
0.000830935
0.000770432
0.00184737
0.00149188
0.00235854
0.0033118
0.00414832
0.00454465
0.0060909
0.0074851
0.00849184
1.45232e-05
0.000365218
0.000828762
0.000749553
0.00159947
0.000946778
0.00209737
0.00279343
0.0020222
0.000849644
0.000795762
0.00184641
0.00148201
0.00234678
0.00330898
0.00411586
0.00450337
0.00594315
0.00726524
0.00808747
1.62754e-05
0.000363328
0.000827342
0.000745681
0.00159158
0.000945358
0.00208863
0.0027151
0.00202988
0.00086854
0.000819994
0.0018467
0.00146987
0.00233596
0.00330287
0.00408222
0.00445338
0.00578518
0.00703547
0.00769119
1.81241e-05
0.000361158
0.000825848
0.000741635
0.00158322
0.000943549
0.0020788
0.00263703
0.00203595
0.000887884
0.000842541
0.00184868
0.00145508
0.00232615
0.0032936
0.00404923
0.00439569
0.00561425
0.00679713
0.00730458
2.00901e-05
0.000358659
0.000824271
0.00073741
0.00157434
0.000941377
0.00206775
0.00255952
0.00204
0.000908013
0.000862794
0.00185269
0.00143734
0.00231707
0.00328165
0.00400618
0.004332
0.00542952
0.00655004
0.0069297
2.21978e-05
0.000355779
0.000822599
0.000733008
0.00156489
0.000938893
0.00205528
0.00248293
0.00204158
0.000929296
0.000880148
0.001859
0.00141653
0.00230809
0.00326789
0.00395522
0.00426406
0.00523178
0.00629308
0.00656868
2.44763e-05
0.000352458
0.000820812
0.000728434
0.00155481
0.000936167
0.00204114
0.00240766
0.00204021
0.000952118
0.000894088
0.00186764
0.00139291
0.00229812
0.00325365
0.00389406
0.00419222
0.00502387
0.00602355
0.00622294
2.69582e-05
0.000348633
0.000818879
0.00072371
0.00154402
0.00093329
0.00202505
0.00233416
0.00203539
0.000976751
0.000904227
0.00187846
0.00136708
0.0022855
0.00324093
0.00382103
0.00411557
0.00481006
0.00573851
0.0058916
2.96788e-05
0.000344241
0.000816759
0.00071887
0.00153241
0.000930383
0.00200667
0.00226287
0.0020267
0.00100341
0.000910247
0.00189106
0.00134013
0.00226789
0.0032315
0.00373604
0.00403099
0.00459535
0.00543676
0.00557179
3.26761e-05
0.000339216
0.000814392
0.00071396
0.00151987
0.000927622
0.00198565
0.00219423
0.00201372
0.00103226
0.000911924
0.00190462
0.00131388
0.00224259
0.00322609
0.00364007
0.00393445
0.00438549
0.00512054
0.00525832
3.59917e-05
0.000333496
0.000811699
0.000709054
0.00150622
0.000925219
0.00196163
0.00212858
0.00199617
0.00106324
0.000909362
0.00191794
0.00129027
0.00220742
0.00322504
0.00353365
0.00382104
0.00418487
0.00479523
0.00494422
3.96669e-05
0.000327027
0.000808567
0.000704252
0.00149126
0.000923393
0.00193427
0.00206624
0.00197386
0.00109607
0.000903172
0.00192935
0.00127119
0.00216107
0.00322581
0.00341821
0.00368604
0.00399413
0.00446764
0.0046226
4.37427e-05
0.00031977
0.00080484
0.000699676
0.00147478
0.00092235
0.0019033
0.00200741
0.0019466
0.00113032
0.000894338
0.00193685
0.00125833
0.0021028
0.00322609
0.00330325
0.00352669
0.00381043
0.00414603
0.00428927
4.82609e-05
0.000311713
0.000800327
0.000695478
0.00145653
0.000922238
0.00186857
0.0019521
0.00191457
0.0011652
0.000883981
0.00193858
0.00125251
0.0020323
0.00322218
0.00319273
0.00334281
0.0036286
0.00383913
0.00394417
5.32548e-05
0.000302865
0.000794774
0.000691837
0.00143633
0.000923129
0.00183004
0.00190012
0.00187826
0.00119963
0.000873211
0.00193327
0.00125392
0.00195036
0.00320983
0.00307996
0.00313661
0.00344154
0.00355402
0.00359177
5.87488e-05
0.000293269
0.000787878
0.000688925
0.00141401
0.000925034
0.00178779
0.00185108
0.00183841
0.00123245
0.000862844
0.00191992
0.00126211
0.00185852
0.00318498
0.00299282
0.00291239
0.00324134
0.00329419
0.0032407
6.47488e-05
0.000283017
0.000779295
0.000686855
0.00138949
0.000927903
0.00174207
0.00180426
0.00179594
0.00126275
0.000853426
0.00189755
0.00127635
0.00175899
0.00314319
0.00291833
0.00267673
0.00302083
0.00305841
0.00290215
7.12432e-05
0.000272252
0.000768651
0.000685696
0.00136276
0.000931512
0.00169337
0.00175881
0.00175174
0.00128973
0.000845215
0.00186545
0.0012955
0.00165449
0.00308051
0.00285568
0.00243821
0.00277553
0.00284175
0.00258788
7.8204e-05
0.000261152
0.000755602
0.000685434
0.00133391
0.000935397
0.00164237
0.00171423
0.00170655
0.00131279
0.000838122
0.00182317
0.00131769
0.00154828
0.00299448
0.0028022
0.00220613
0.00250458
0.00263548
0.00230772
8.55481e-05
0.000249962
0.000739842
0.000685899
0.00130317
0.000938929
0.00158995
0.00166937
0.00166078
0.0013317
0.000832037
0.00177033
0.00134061
0.00144442
0.00288405
0.0027532
0.00198921
0.00221106
0.00242764
0.00206706
9.31732e-05
0.000238949
0.000721098
0.000686816
0.00127096
0.000941376
0.00153691
0.00162432
0.00161431
0.0013461
0.000827104
0.00170684
0.0013617
0.00134678
0.00274974
0.00270223
0.00179417
0.00190204
0.00220575
0.00186475
0.000100949
0.000228365
0.000699218
0.000687739
0.00123784
0.000941952
0.00148387
0.00157912
0.0015667
0.00135556
0.00082359
0.00163277
0.00137821
0.00125774
0.00259319
0.0026421
0.00162438
0.00158745
0.00196103
0.00169241
0.000108671
0.000218501
0.000674221
0.00068798
0.00120449
0.000940052
0.0014312
0.00153399
0.00151756
0.00135939
0.000821887
0.00154861
0.00138656
0.00117951
0.00241831
0.00256651
0.00147889
0.00127818
0.00169103
0.00153551
0.000116106
0.000209624
0.000646368
0.000686603
0.00117147
0.000935395
0.00137876
0.00148965
0.00146706
0.00135614
0.00082209
0.00145596
0.00138263
0.00111224
0.00223147
0.00247208
0.00135454
0.000983698
0.00139913
0.00137646
0.000122987
0.000201937
0.000616118
0.000682541
0.00113909
0.000928079
0.00132591
0.00144662
0.00141583
0.00134424
0.000823562
0.00135744
0.00136341
0.00105441
0.00203851
0.00235747
0.00124769
0.000711379
0.00109299
0.00119994
0.000129082
0.000195597
0.000584059
0.000674772
0.00110746
0.000918639
0.00127186
0.00140465
0.00136486
0.00132277
0.000825683
0.00125591
0.00132729
0.0010035
0.00184401
0.00222182
0.0011533
0.000466139
0.000783042
0.000998969
0.000134188
0.000190636
0.000550887
0.000662504
0.00107631
0.000907874
0.00121601
0.001363
0.00131553
0.00129136
0.000823909
0.00115416
0.00127464
0.000956691
0.00165208
0.00206577
0.00106497
0.00024955
0.000480119
0.000776737
0.000138136
0.000186895
0.000517467
0.000645141
0.00104476
0.00089669
0.00115831
0.00132026
0.00126898
0.00125035
0.000815263
0.00105378
0.00120768
0.000911333
0.00146615
0.00189165
0.000976957
5.96322e-05
0.000191925
0.000544621
0.000140795
0.000184068
0.000484618
0.000622461
0.00101157
0.000885683
0.00109907
0.00127462
0.00122585
0.0012014
0.000796983
0.000954784
0.0011286
0.000865939
0.00128929
0.00170201
0.000884966
-0.000106124
-8.02618e-05
0.000314481
0.00014206
0.000181714
0.000453017
0.000595109
0.000975237
0.000874866
0.00103938
0.00122435
0.00118573
0.00114729
0.00076809
0.000855251
0.00103802
0.000819317
0.00112438
0.00149992
0.00078438
-0.000248372
-0.000338259
8.86858e-05
0.00014188
0.000179211
0.00042323
0.000564061
0.000934073
0.000863962
0.000981426
0.00116829
0.00114683
0.00109128
0.000728448
0.000752567
0.000936688
0.000769038
0.000974828
0.00129174
0.0006695
-0.000368339
-0.000579336
-0.000139779
0.000140257
0.000176
0.000395499
0.000530908
0.00088694
0.00085054
0.00092717
0.00110649
0.00110615
0.00103544
0.000679605
0.000645272
0.00082454
0.000712777
0.000842543
0.00108562
0.000536502
-0.000473242
-0.00079566
-0.000377214
0.000136732
0.000171618
0.000369709
0.000497168
0.000833491
0.000832075
0.000877278
0.00104051
0.00106069
0.000979492
0.000625364
0.000533686
0.000700183
0.000647873
0.000725767
0.000890886
0.000390245
-0.0005757
-0.000982749
-0.000619574
0.000132502
0.000165656
0.000345394
0.000463949
0.000774217
0.000805839
0.000831466
0.000973232
0.0010089
0.000922149
0.000567955
0.000419991
0.00056392
0.000569815
0.000620793
0.00071369
0.000240058
-0.000683453
-0.00114539
-0.000854421
0.000127037
0.000157778
0.0003217
0.000432237
0.000710863
0.000769597
0.000788248
0.000907808
0.000950727
0.000860893
0.000507505
0.000307753
0.00041831
0.000474891
0.000523234
0.000554172
9.51041e-05
-0.000791956
-0.00129318
-0.00107113
0.000120386
0.000147825
0.000297533
0.000402685
0.000645824
0.000721985
0.000743834
0.000846127
0.000887995
0.000793108
0.000443138
0.000199365
0.000267641
0.000362598
0.000425215
0.000410244
-3.99954e-05
-0.000895066
-0.00143117
-0.00126719
0.000112523
0.000135773
0.000271846
0.000375247
0.000582073
0.000662852
0.000693414
0.000787937
0.000824898
0.000718995
0.00037159
9.42877e-05
0.000119154
0.000235798
0.000319938
0.000278547
-0.000165716
-0.000986473
-0.00155731
-0.00144803
0.00010339
0.000121737
0.00024383
0.000349142
0.000521774
0.000593254
0.000632836
0.000731898
0.000765305
0.000640285
0.000289879
-1.00538e-05
-2.17708e-05
9.99743e-05
0.000203661
0.000152102
-0.000284539
-0.00106523
-0.0016641
-0.00161948
9.28657e-05
0.000106024
0.000212737
0.000323047
0.000466516
0.000516674
0.000559248
0.0006739
0.000711638
0.000560987
0.000197746
-0.000118627
-0.000157357
-3.37919e-05
8.0143e-05
2.46755e-05
-0.00040061
-0.00113868
-0.00174294
-0.00177846
8.07482e-05
8.90493e-05
0.000178314
0.000294761
0.000417273
0.000437476
0.00047179
0.000607593
0.000663433
0.000488071
9.73321e-05
-0.000237078
-0.000291252
-0.0001607
-4.27921e-05
-0.000105273
-0.000519361
-0.00121474
-0.001799
-0.00190841
6.67655e-05
7.11459e-05
0.000140654
0.00026218
0.00037401
0.000360226
0.000371282
0.000527196
0.000617672
0.000427598
-6.25449e-06
-0.000369071
-0.000428405
-0.000283421
-0.000155871
-0.000230543
-0.000642684
-0.00130489
-0.00184888
-0.00199529
5.05721e-05
5.27047e-05
0.000100213
0.000223637
0.000335536
0.00028861
0.000260405
0.00042879
0.000568687
0.000381069
-0.000103105
-0.000512595
-0.000578759
-0.000404728
-0.000256782
-0.000343194
-0.000762219
-0.00141285
-0.00191592
-0.00205155
3.18286e-05
3.37584e-05
5.81432e-05
0.000177787
0.000299062
0.000225439
0.000144289
0.000310563
0.000508763
0.000346687
-0.000182834
-0.000660541
-0.000749656
-0.000534256
-0.000346639
-0.000437208
-0.000869819
-0.00152649
-0.00201923
-0.00210672
1.02171e-05
1.41542e-05
1.56931e-05
0.000123944
0.000260975
0.000172194
2.96801e-05
0.000173432
0.000429764
0.000320396
-0.000239391
-0.000802304
-0.000937942
-0.000688026
-0.000432279
-0.00050688
-0.000957813
-0.00163047
-0.00215226
-0.002203
-1.45675e-05
-6.41238e-06
-2.56087e-05
6.24178e-05
0.000217048
0.000128543
-7.65178e-05
2.05982e-05
0.000325133
0.000293769
-0.000270743
-0.000924771
-0.00113568
-0.000873506
-0.000531567
-0.000553442
-0.00101818
-0.00171415
-0.00228831
-0.00235792
-4.2637e-05
-2.85678e-05
-6.45728e-05
-5.83265e-06
0.000163663
9.24857e-05
-0.000169091
-0.000141771
0.000191413
0.00025575
-0.000279424
-0.00101638
-0.00133263
-0.00108865
-0.000664969
-0.00058962
-0.00104152
-0.00177021
-0.0024047
-0.00254903
-7.39395e-05
-5.31348e-05
-0.000100785
-7.85574e-05
9.84914e-05
5.95775e-05
-0.000244623
-0.000304766
2.92123e-05
0.000195289
-0.000272238
-0.0010701
-0.00151258
-0.00132524
-0.000842108
-0.00063934
-0.00103042
-0.00178901
-0.00248871
-0.00274037
-0.000108257
-8.10241e-05
-0.00013428
-0.000152503
2.03385e-05
2.37931e-05
-0.000302174
-0.00045809
-0.000156993
0.000102847
-0.000261409
-0.00108534
-0.00165915
-0.00157101
-0.00106404
-0.000728087
-0.00100123
-0.00176082
-0.00253412
-0.00290298
-0.000145137
-0.000113186
-0.000165758
-0.00022409
-6.99191e-05
-2.12853e-05
-0.000343322
-0.000592726
-0.000359218
-2.773e-05
-0.00026248
-0.00106638
-0.00176115
-0.00180656
-0.0013208
-0.000872103
-0.000984367
-0.00168993
-0.00253092
-0.00302191
-0.000184147
-0.000150117
-0.000196634
-0.000290597
-0.000170188
-8.08563e-05
-0.00037299
-0.000702789
-0.000564891
-0.000196117
-0.000290563
-0.00102334
-0.00181249
-0.00201271
-0.00159662
-0.00107498
-0.00101313
-0.00159589
-0.00247088
-0.00308752
-0.000224747
-0.000191973
-0.00022908
-0.00035056
-0.000276484
-0.000157715
-0.00039912
-0.000786082
-0.000760011
-0.000395929
-0.000357924
-0.000975032
-0.00181328
-0.00217461
-0.00187158
-0.00132393
-0.0011093
-0.00151724
-0.00236036
-0.00308867
-0.000266495
-0.000238518
-0.000265204
-0.000403898
-0.000383083
-0.000252148
-0.000430802
-0.000844022
-0.000932988
-0.000616541
-0.000470333
-0.000943256
-0.00177134
-0.00227886
-0.00212623
-0.00160219
-0.00127372
-0.00149277
-0.00222472
-0.00302077
-0.000309149
-0.000289153
-0.000306817
-0.000451543
-0.000484444
-0.0003616
-0.000475907
-0.000881588
-0.00107607
-0.000842157
-0.000625226
-0.000944602
-0.00170589
-0.00232075
-0.00234117
-0.00189132
-0.0014908
-0.00154196
-0.00210917
-0.00289708
-0.000352665
-0.00034289
-0.000354848
-0.000495532
-0.000576806
-0.00048162
-0.000539417
-0.0009085
-0.00118619
-0.00105601
-0.000814477
-0.000989464
-0.00164272
-0.00230876
-0.00249652
-0.00216969
-0.00174521
-0.0016614
-0.00205026
-0.002751
-0.000397144
-0.000398528
-0.000409214
-0.000538878
-0.000658699
-0.000605455
-0.000622606
-0.000936037
-0.00126554
-0.0012448
-0.00102473
-0.00108108
-0.00160189
-0.00226113
-0.00258467
-0.00241193
-0.00201843
-0.00183551
-0.00206192
-0.00262762
-0.000442763
-0.000454965
-0.000469047
-0.000584674
-0.000730543
-0.000725736
-0.000722738
-0.000973714
-0.00131997
-0.00140069
-0.00123724
-0.0012138
-0.00159731
-0.00220291
-0.00261475
-0.00259647
-0.00228551
-0.00204927
-0.00214019
-0.00255833
-0.000489707
-0.000511417
-0.000532984
-0.00063506
-0.0007941
-0.000836957
-0.000834736
-0.0010272
-0.00136025
-0.00152225
-0.00143487
-0.00137648
-0.00163614
-0.00215494
-0.00260346
-0.00271673
-0.00251936
-0.0022818
-0.00227149
-0.00255341
-0.000538045
-0.000567471
-0.000599228
-0.0006907
-0.000852113
-0.000936529
-0.000951674
-0.00109767
-0.00139798
-0.00161368
-0.00160658
-0.00155216
-0.00171552
-0.00213294
-0.00257348
-0.00278173
-0.00270214
-0.00250817
-0.0024393
-0.00260806
-0.00058769
-0.000622918
-0.000665822
-0.000750985
-0.000907784
-0.00102428
-0.00106633
-0.00118221
-0.00144147
-0.00168213
-0.00174763
-0.0017233
-0.00182534
-0.00214534
-0.00254478
-0.00280634
-0.00283036
-0.00270636
-0.00262164
-0.00270806
-0.000638344
-0.000677599
-0.000731187
-0.000814512
-0.000963606
-0.00110166
-0.00117325
-0.00127549
-0.0014949
-0.00173753
-0.00185951
-0.00187805
-0.00195176
-0.00219099
-0.00253188
-0.00281005
-0.00291246
-0.00286455
-0.00279738
-0.00283577
-0.000689479
-0.000731362
-0.000794255
-0.000879485
-0.00102069
-0.00117077
-0.00126967
-0.00137152
-0.00155853
-0.00178883
-0.0019475
-0.00201036
-0.00208029
-0.0022615
-0.00254195
-0.00280991
-0.00296112
-0.00298164
-0.00295128
-0.00297211
-0.000740392
-0.000783955
-0.000854329
-0.000943956
-0.00107887
-0.00123385
-0.00135503
-0.00146473
-0.00162939
-0.0018412
-0.00201823
-0.00211915
-0.00220039
-0.00234655
-0.00257458
-0.00281727
-0.00299124
-0.00306461
-0.00307645
-0.00310141
-0.000790238
-0.00083492
-0.000910952
-0.00100613
-0.00113712
-0.00129265
-0.00143004
-0.00155119
-0.00170319
-0.00189626
-0.00207846
-0.00220724
-0.00230614
-0.00243569
-0.00262397
-0.00283709
-0.00301515
-0.00312286
-0.00317307
-0.00321392
-0.000838059
-0.000883596
-0.000963714
-0.00106447
-0.00119386
-0.00134799
-0.00149581
-0.00162862
-0.00177571
-0.00195331
-0.00213289
-0.00227895
-0.00239531
-0.00252056
-0.00268251
-0.00286883
-0.0030403
-0.00316628
-0.00324594
-0.003306
-0.000882815
-0.000929111
-0.00101208
-0.00111775
-0.00124732
-0.00139976
-0.00155351
-0.00169605
-0.00184313
-0.0020101
-0.00218378
-0.00233845
-0.00246871
-0.002596
-0.00274287
-0.00290844
-0.00306952
-0.00320252
-0.0033012
-0.00337864
-0.000923376
-0.000970377
-0.00105532
-0.00116498
-0.0012958
-0.00144696
-0.00160385
-0.0017536
-0.00190275
-0.00206339
-0.00223114
-0.00238899
-0.00252866
-0.00265999
-0.00279914
-0.00295025
-0.00310132
-0.00323555
-0.00334505
-0.00343517
-0.000958584
-0.00100619
-0.00109241
-0.00120504
-0.00133751
-0.00148781
-0.00164623
-0.00180122
-0.00195326
-0.00211038
-0.00227295
-0.00243112
-0.00257678
-0.00271273
-0.00284861
-0.00298972
-0.00313155
-0.00326399
-0.00337973
-0.00347926
-0.000987254
-0.00103544
-0.00112249
-0.00123709
-0.0013709
-0.00152045
-0.00167902
-0.0018371
-0.0019918
-0.00214739
-0.00230598
-0.0024628
-0.00261167
-0.0027517
-0.00288734
-0.0030227
-0.00315697
-0.00328503
-0.0034019
-0.00350651
-0.00100919
-0.00105892
-0.00114728
-0.00126393
-0.00139969
-0.00154963
-0.00170823
-0.00186793
-0.00202483
-0.00218059
-0.0023371
-0.00249221
-0.00264173
-0.00278389
-0.0029205
-0.00305414
-0.0031849
-0.00331005
-0.00342628
-0.00353242
0.0165943
0.00949444
0.000524172
-0.00575595
-0.00766534
-0.00736474
-0.00696224
-0.00685612
-0.0068701
-0.00682158
-0.00669648
-0.0065725
-0.00652491
-0.00657905
-0.00667669
-0.00682465
-0.00701992
-0.00713763
-0.00721721
-0.00741739
-0.00765557
-0.00778262
-0.00787385
-0.00804758
-0.00827575
-0.00847441
-0.0086205
-0.00877311
-0.0089911
-0.00922206
-0.00937759
-0.00950854
-0.0097153
-0.00994157
-0.0100971
-0.010241
-0.010428
-0.0105983
-0.0107332
-0.0108802
-0.01104
-0.0111892
-0.0113347
-0.0114839
-0.0116343
-0.011787
-0.0119417
-0.0121006
-0.0122675
-0.012437
-0.0126051
-0.0127783
-0.0129606
-0.0131472
-0.0133355
-0.0135293
-0.0137292
-0.0139343
-0.0141432
-0.0143577
-0.0145772
-0.0148026
-0.0150325
-0.0152685
-0.0155094
-0.0157563
-0.0160083
-0.0162661
-0.0165296
-0.0167983
-0.0170738
-0.0173537
-0.0176416
-0.0179329
-0.0182329
-0.0185363
-0.0188477
-0.019164
-0.0194861
-0.0198161
-0.020149
-0.0204927
-0.0208375
-0.0211936
-0.021553
-0.0219196
-0.0222955
-0.0226726
-0.0230638
-0.0234553
-0.0238569
-0.0242683
-0.0246758
-0.0251079
-0.0255259
-0.0259604
-0.0264184
-0.0268262
-0.0272969
-0.0277974
0.0157685
0.0093424
0.000609978
-0.00561187
-0.00757746
-0.00732199
-0.00693733
-0.00684052
-0.00685962
-0.00681365
-0.00668974
-0.00656638
-0.0065192
-0.00657384
-0.00667197
-0.00682037
-0.00701627
-0.00713439
-0.00721399
-0.00741444
-0.00765314
-0.00778042
-0.00787166
-0.00804551
-0.00827392
-0.00847281
-0.00861902
-0.00877165
-0.00898975
-0.00922094
-0.0093766
-0.00950755
-0.00971438
-0.00994083
-0.0100964
-0.0102404
-0.0104274
-0.0105979
-0.0107328
-0.0108799
-0.0110397
-0.0111889
-0.0113345
-0.0114837
-0.0116341
-0.0117868
-0.0119416
-0.0121005
-0.0122674
-0.012437
-0.012605
-0.0127782
-0.0129605
-0.0131472
-0.0133355
-0.0135293
-0.0137292
-0.0139343
-0.0141432
-0.0143577
-0.0145772
-0.0148026
-0.0150325
-0.0152685
-0.0155094
-0.0157563
-0.0160083
-0.0162661
-0.0165296
-0.0167983
-0.0170738
-0.0173537
-0.0176416
-0.0179329
-0.0182329
-0.0185363
-0.0188477
-0.019164
-0.0194861
-0.0198161
-0.020149
-0.0204927
-0.0208375
-0.0211936
-0.021553
-0.0219196
-0.0222955
-0.0226726
-0.0230638
-0.0234553
-0.0238569
-0.0242683
-0.0246758
-0.0251079
-0.0255259
-0.0259604
-0.0264184
-0.0268262
-0.0272968
-0.0277974
0.0150239
0.00921163
0.000790851
-0.00534911
-0.0074339
-0.00726882
-0.00690795
-0.00681766
-0.00684265
-0.00680162
-0.00668109
-0.00655978
-0.00651368
-0.00656891
-0.00666734
-0.00681609
-0.00701266
-0.00713122
-0.0072109
-0.00741166
-0.00765083
-0.00777828
-0.00786957
-0.0080436
-0.00827224
-0.0084713
-0.00861761
-0.00877028
-0.00898852
-0.0092199
-0.00937564
-0.00950656
-0.00971351
-0.00994016
-0.0100958
-0.0102398
-0.0104269
-0.0105975
-0.0107324
-0.0108795
-0.0110394
-0.0111887
-0.0113343
-0.0114835
-0.011634
-0.0117867
-0.0119415
-0.0121004
-0.0122673
-0.0124369
-0.012605
-0.0127782
-0.0129605
-0.0131471
-0.0133355
-0.0135292
-0.0137292
-0.0139343
-0.0141432
-0.0143577
-0.0145772
-0.0148026
-0.0150325
-0.0152685
-0.0155094
-0.0157563
-0.0160083
-0.0162661
-0.0165296
-0.0167983
-0.0170738
-0.0173537
-0.0176416
-0.0179329
-0.0182329
-0.0185363
-0.0188477
-0.019164
-0.0194861
-0.0198161
-0.020149
-0.0204927
-0.0208375
-0.0211936
-0.021553
-0.0219196
-0.0222955
-0.0226726
-0.0230638
-0.0234553
-0.0238569
-0.0242683
-0.0246758
-0.0251079
-0.0255259
-0.0259604
-0.0264184
-0.0268262
-0.0272968
-0.0277975
0.0143214
0.00907521
0.00101303
-0.00502158
-0.00723972
-0.00719347
-0.00686247
-0.00677914
-0.00681269
-0.00678046
-0.00666707
-0.00655064
-0.00650716
-0.00656344
-0.00666199
-0.0068107
-0.00700783
-0.00712726
-0.0072074
-0.00740833
-0.00764772
-0.00777552
-0.00786716
-0.00804138
-0.00827009
-0.00846934
-0.00861589
-0.0087687
-0.00898701
-0.00921853
-0.00937437
-0.00950533
-0.00971241
-0.00993923
-0.0100949
-0.0102389
-0.0104262
-0.0105969
-0.0107318
-0.0108791
-0.011039
-0.0111884
-0.011334
-0.0114833
-0.0116338
-0.0117865
-0.0119413
-0.0121003
-0.0122672
-0.0124368
-0.0126049
-0.0127781
-0.0129604
-0.0131471
-0.0133355
-0.0135292
-0.0137292
-0.0139343
-0.0141432
-0.0143577
-0.0145772
-0.0148026
-0.0150325
-0.0152685
-0.0155094
-0.0157563
-0.0160083
-0.0162661
-0.0165296
-0.0167983
-0.0170738
-0.0173537
-0.0176416
-0.0179329
-0.0182329
-0.0185363
-0.0188477
-0.019164
-0.0194861
-0.0198161
-0.020149
-0.0204927
-0.0208375
-0.0211936
-0.021553
-0.0219196
-0.0222955
-0.0226726
-0.0230638
-0.0234553
-0.0238569
-0.0242683
-0.0246758
-0.0251079
-0.0255259
-0.0259604
-0.0264184
-0.0268262
-0.0272968
-0.0277976
0.0136187
0.00890721
0.00123968
-0.00467364
-0.00702333
-0.00710669
-0.00680777
-0.00672822
-0.00676978
-0.00674875
-0.00664594
-0.0065375
-0.00649866
-0.00655689
-0.00665566
-0.00680376
-0.00700103
-0.00712191
-0.00720327
-0.00740408
-0.00764318
-0.00777167
-0.00786427
-0.00803862
-0.00826698
-0.00846637
-0.00861356
-0.00876673
-0.00898494
-0.00921641
-0.00937245
-0.00950364
-0.00971082
-0.0099377
-0.0100935
-0.0102377
-0.0104251
-0.0105958
-0.0107309
-0.0108783
-0.0110384
-0.0111878
-0.0113335
-0.0114828
-0.0116334
-0.0117862
-0.011941
-0.0121001
-0.012267
-0.0124367
-0.0126047
-0.012778
-0.0129604
-0.013147
-0.0133354
-0.0135292
-0.0137292
-0.0139342
-0.0141432
-0.0143577
-0.0145772
-0.0148025
-0.0150325
-0.0152685
-0.0155094
-0.0157563
-0.0160083
-0.0162661
-0.0165296
-0.0167983
-0.0170738
-0.0173537
-0.0176416
-0.0179329
-0.0182329
-0.0185363
-0.0188477
-0.019164
-0.0194861
-0.0198161
-0.020149
-0.0204927
-0.0208375
-0.0211936
-0.021553
-0.0219196
-0.0222955
-0.0226726
-0.0230638
-0.0234553
-0.0238569
-0.0242683
-0.0246758
-0.0251079
-0.0255259
-0.0259604
-0.0264184
-0.0268262
-0.0272969
-0.0277978
0.0129124
0.00870677
0.00145978
-0.00431934
-0.00679459
-0.00701497
-0.00675167
-0.00667253
-0.00671943
-0.00670971
-0.00661916
-0.00652077
-0.00648815
-0.00654915
-0.00664838
-0.0067954
-0.00699222
-0.00711507
-0.00719845
-0.00739878
-0.00763694
-0.00776658
-0.00786094
-0.00803535
-0.00826271
-0.00846207
-0.00861037
-0.00876424
-0.0089821
-0.00921323
-0.00936968
-0.00950135
-0.0097085
-0.00993526
-0.0100912
-0.0102357
-0.0104233
-0.0105941
-0.0107294
-0.010877
-0.0110373
-0.0111868
-0.0113326
-0.0114821
-0.0116327
-0.0117856
-0.0119406
-0.0120997
-0.0122667
-0.0124364
-0.0126045
-0.0127778
-0.0129602
-0.0131469
-0.0133353
-0.0135291
-0.0137291
-0.0139342
-0.0141431
-0.0143577
-0.0145772
-0.0148025
-0.0150325
-0.0152685
-0.0155094
-0.0157563
-0.0160083
-0.0162661
-0.0165296
-0.0167983
-0.0170738
-0.0173537
-0.0176416
-0.0179329
-0.0182329
-0.0185363
-0.0188477
-0.019164
-0.0194861
-0.0198161
-0.020149
-0.0204927
-0.0208375
-0.0211936
-0.021553
-0.0219196
-0.0222955
-0.0226726
-0.0230638
-0.0234553
-0.0238569
-0.0242683
-0.0246758
-0.0251079
-0.0255259
-0.0259604
-0.0264184
-0.0268262
-0.0272969
-0.027798
0.0122118
0.00847834
0.00166743
-0.00396366
-0.00655456
-0.0069182
-0.00669582
-0.00661516
-0.00666484
-0.00666602
-0.00658858
-0.00650144
-0.006476
-0.00654034
-0.00664029
-0.006786
-0.00698199
-0.0071071
-0.00719296
-0.00739242
-0.00762912
-0.00776034
-0.00785726
-0.00803171
-0.00825737
-0.0084564
-0.00860625
-0.00876116
-0.00897836
-0.0092088
-0.00936591
-0.0094984
-0.00970534
-0.00993172
-0.010088
-0.0102329
-0.0104206
-0.0105915
-0.0107271
-0.0108751
-0.0110356
-0.0111853
-0.0113313
-0.0114809
-0.0116317
-0.0117848
-0.0119398
-0.0120991
-0.0122661
-0.0124359
-0.0126041
-0.0127775
-0.0129599
-0.0131466
-0.0133351
-0.0135289
-0.0137289
-0.0139341
-0.014143
-0.0143576
-0.0145771
-0.0148025
-0.0150324
-0.0152685
-0.0155093
-0.0157563
-0.0160083
-0.0162661
-0.0165296
-0.0167983
-0.0170738
-0.0173537
-0.0176416
-0.0179329
-0.0182329
-0.0185363
-0.0188477
-0.019164
-0.0194861
-0.0198161
-0.020149
-0.0204927
-0.0208375
-0.0211936
-0.021553
-0.0219196
-0.0222955
-0.0226726
-0.0230638
-0.0234553
-0.0238569
-0.0242683
-0.0246758
-0.0251079
-0.0255259
-0.0259604
-0.0264184
-0.0268263
-0.027297
-0.0277983
0.011526
0.0082225
0.0018558
-0.00360961
-0.00630167
-0.00681361
-0.00663948
-0.00655694
-0.00660721
-0.00661883
-0.00655514
-0.00648009
-0.00646249
-0.00653057
-0.00663146
-0.00677587
-0.0069709
-0.00709839
-0.0071869
-0.00738519
-0.00762009
-0.00775321
-0.00785327
-0.0080278
-0.00825129
-0.00844971
-0.00860134
-0.00875752
-0.00897373
-0.00920315
-0.00936119
-0.00949483
-0.00970137
-0.00992706
-0.0100838
-0.0102293
-0.010417
-0.0105879
-0.010724
-0.0108724
-0.0110332
-0.0111832
-0.0113294
-0.0114793
-0.0116302
-0.0117835
-0.0119388
-0.0120982
-0.0122653
-0.0124351
-0.0126035
-0.012777
-0.0129595
-0.0131462
-0.0133347
-0.0135286
-0.0137287
-0.0139339
-0.0141429
-0.0143575
-0.014577
-0.0148024
-0.0150324
-0.0152684
-0.0155093
-0.0157562
-0.0160083
-0.0162661
-0.0165296
-0.0167983
-0.0170738
-0.0173537
-0.0176416
-0.0179329
-0.0182329
-0.0185363
-0.0188477
-0.019164
-0.0194861
-0.0198161
-0.020149
-0.0204927
-0.0208375
-0.0211936
-0.021553
-0.0219196
-0.0222955
-0.0226726
-0.0230638
-0.0234553
-0.0238569
-0.0242683
-0.0246758
-0.0251079
-0.0255259
-0.0259605
-0.0264184
-0.0268263
-0.0272971
-0.0277986
0.0108602
0.00793953
0.00202061
-0.00325802
-0.00603372
-0.00669851
-0.00658219
-0.00649896
-0.00654761
-0.00656882
-0.00651931
-0.00645702
-0.00644777
-0.00651988
-0.00662193
-0.00676517
-0.00695923
-0.00708909
-0.00718032
-0.00737732
-0.00761024
-0.00774541
-0.00784897
-0.00802366
-0.00824475
-0.00844239
-0.00859591
-0.00875341
-0.00896838
-0.0091965
-0.00935564
-0.00949073
-0.0096967
-0.00992147
-0.0100787
-0.0102249
-0.0104125
-0.0105835
-0.0107201
-0.010869
-0.0110301
-0.0111804
-0.011327
-0.0114771
-0.0116282
-0.0117817
-0.0119373
-0.0120969
-0.0122641
-0.0124341
-0.0126026
-0.0127763
-0.0129589
-0.0131457
-0.0133343
-0.0135283
-0.0137284
-0.0139336
-0.0141426
-0.0143573
-0.0145769
-0.0148023
-0.0150323
-0.0152683
-0.0155093
-0.0157562
-0.0160083
-0.016266
-0.0165296
-0.0167983
-0.0170738
-0.0173537
-0.0176416
-0.0179329
-0.0182329
-0.0185363
-0.0188477
-0.019164
-0.0194861
-0.0198161
-0.020149
-0.0204927
-0.0208375
-0.0211936
-0.021553
-0.0219196
-0.0222955
-0.0226726
-0.0230638
-0.0234553
-0.0238569
-0.0242683
-0.0246758
-0.0251079
-0.0255259
-0.0259605
-0.0264184
-0.0268263
-0.0272972
-0.027799
0.0102173
0.00763313
0.00216093
-0.00290993
-0.00575068
-0.0065718
-0.00652432
-0.00644275
-0.00648719
-0.00651644
-0.00648121
-0.00643227
-0.00643183
-0.00650828
-0.00661174
-0.00675394
-0.00694696
-0.0070792
-0.00717327
-0.00736899
-0.0075998
-0.00773706
-0.00784434
-0.0080193
-0.00823789
-0.00843467
-0.00859013
-0.00874899