/*--------------------------------*- C++ -*----------------------------------*\
| =========                 |                                                 |
| \\      /  F ield         | OpenFOAM: The Open Source CFD Toolbox           |
|  \\    /   O peration     | Version:  2106                                  |
|   \\  /    A nd           | Website:  www.openfoam.com                      |
|    \\/     M anipulation  |                                                 |
\*---------------------------------------------------------------------------*/
FoamFile
{
    version     2.0;
    format      ascii;
    arch        "LSB;label=32;scalar=64";
    class       volScalarField;
    location    "0.22";
    object      p;
}
// * * * * * * * * * * * * * * * * * * * * * * * * * * * * * * * * * * * * * //

dimensions      [0 2 -2 0 0 0 0];

internalField   nonuniform List<scalar> 
9600
(
-1.23444e-11
0.000928446
0.000876327
0.000812988
0.000585223
0.00178161
0.00129376
0.0010901
0.00171694
0.0022713
0.0021361
0.00208531
0.0027808
0.0028618
0.00314056
0.00493757
0.00522196
0.00714973
0.00854933
0.0132961
1.65095e-06
0.000925861
0.000878332
0.000811958
0.000588122
0.00177558
0.00129434
0.00109676
0.00171383
0.00225864
0.00214477
0.00208073
0.00278785
0.00286084
0.00313896
0.004928
0.00523623
0.00712502
0.0085676
0.0128759
3.54736e-06
0.000922635
0.00088065
0.000810726
0.00059136
0.00176664
0.00129938
0.00110512
0.00170451
0.00224604
0.00214856
0.00207845
0.00279589
0.00286181
0.0031423
0.00491222
0.00525548
0.00708843
0.00856835
0.012383
5.64011e-06
0.000919743
0.000882528
0.000809566
0.000594871
0.00175592
0.00130785
0.00111181
0.00169267
0.00223566
0.00214619
0.00208034
0.00280457
0.00286578
0.00314681
0.00488973
0.00527762
0.00703974
0.00854968
0.0119124
8.28215e-06
0.000917065
0.000883822
0.000808505
0.000599038
0.00174294
0.00131908
0.00111731
0.00167925
0.00222604
0.00214215
0.00208442
0.00281472
0.0028693
0.0031509
0.00486402
0.00529974
0.00698219
0.00850953
0.0114669
1.15431e-05
0.000914377
0.00088457
0.000807486
0.000603867
0.00172809
0.00133271
0.00112176
0.00166461
0.00221661
0.00213865
0.00208943
0.00282631
0.00287106
0.00315545
0.00483606
0.00531988
0.00691794
0.00844838
0.0110407
1.53174e-05
0.000911561
0.000884902
0.000806399
0.000609248
0.00171218
0.00134798
0.00112541
0.00164948
0.0022069
0.00213685
0.00209476
0.00283926
0.00287113
0.00316014
0.00480643
0.00533674
0.00684885
0.00836465
0.0106321
1.94725e-05
0.000908546
0.000885005
0.00080513
0.000615112
0.00169575
0.00136418
0.0011288
0.0016341
0.00219658
0.00213733
0.00209999
0.00285356
0.00286953
0.00316423
0.00477662
0.00534835
0.00677563
0.00825799
0.0102685
2.39071e-05
0.000905299
0.000885066
0.00080359
0.000621414
0.00167912
0.00138091
0.00113216
0.00161847
0.00218553
0.0021402
0.0021049
0.00286895
0.00286653
0.00316716
0.00474776
0.00535251
0.00669876
0.00812896
0.00989477
2.85657e-05
0.000901809
0.00088522
0.000801713
0.000628137
0.00166239
0.0013979
0.00113551
0.00160266
0.00217362
0.00214528
0.00210937
0.00288496
0.0028628
0.00316806
0.00472044
0.00534791
0.00661856
0.00797941
0.00952443
3.34304e-05
0.00089807
0.000885545
0.000799448
0.000635271
0.0016456
0.001415
0.00113879
0.0015867
0.00216074
0.00215233
0.00211337
0.00290106
0.00285904
0.00316569
0.00469529
0.00533406
0.00653447
0.00781211
0.00915641
3.85056e-05
0.000894063
0.00088608
0.000796755
0.000642799
0.00162874
0.00143208
0.00114192
0.00157059
0.00214677
0.002161
0.00211697
0.00291657
0.00285596
0.00315892
0.00467269
0.00531089
0.00644477
0.0076305
0.00878946
4.38063e-05
0.00088976
0.000886847
0.000793603
0.000650705
0.00161181
0.00144907
0.00114483
0.00155437
0.00213168
0.00217086
0.0021204
0.00293069
0.00285415
0.00314707
0.00465247
0.00527853
0.00634709
0.0074391
0.00842297
4.93521e-05
0.000885122
0.000887859
0.000789972
0.000658977
0.00159482
0.00146591
0.00114746
0.00153799
0.00211553
0.0021815
0.00212402
0.00294263
0.00285415
0.00312959
0.00463404
0.00523768
0.00623863
0.00724227
0.00805762
5.51658e-05
0.000880106
0.000889128
0.000785849
0.000667602
0.00157781
0.00148253
0.0011498
0.00152141
0.00209845
0.00219248
0.00212827
0.00295174
0.00285635
0.00310609
0.0046161
0.00519023
0.00611667
0.0070424
0.0076946
6.12725e-05
0.000874666
0.000890662
0.000781227
0.000676559
0.00156081
0.00149885
0.00115183
0.00150451
0.0020807
0.00220333
0.00213367
0.00295738
0.00286094
0.00307677
0.00459649
0.00513861
0.0059793
0.00683991
0.00733649
6.77e-05
0.000868754
0.000892465
0.000776108
0.000685824
0.00154388
0.00151477
0.00115361
0.0014871
0.00206267
0.0022136
0.00214064
0.00295909
0.00286764
0.00304239
0.00457269
0.00508483
0.00582579
0.00663404
0.00698706
7.44781e-05
0.00086232
0.000894537
0.000770497
0.000695358
0.0015271
0.00153014
0.00115524
0.00146893
0.00204476
0.00222289
0.00214938
0.0029567
0.00287577
0.00300406
0.0045421
0.00503028
0.00565687
0.00642305
0.0066499
8.16402e-05
0.000855311
0.000896871
0.000764419
0.000705088
0.00151059
0.00154476
0.00115692
0.00144967
0.00202724
0.00223091
0.00215999
0.00295038
0.00288408
0.00296306
0.00450261
0.00497544
0.00547476
0.00620442
0.00632769
8.9221e-05
0.000847675
0.000899443
0.000757924
0.000714919
0.00149449
0.00155841
0.00115889
0.00142903
0.00201032
0.00223744
0.00217231
0.0029407
0.00289115
0.0029204
0.00445272
0.00491989
0.00528254
0.00597597
0.00602283
9.72584e-05
0.000839359
0.000902216
0.000751072
0.000724761
0.00147897
0.00157079
0.00116137
0.00140675
0.00199422
0.00224248
0.00218555
0.00292845
0.00289602
0.00287636
0.00439148
0.00486287
0.00508349
0.00573626
0.00573617
0.000105797
0.000830313
0.000905136
0.00074393
0.000734481
0.00146428
0.00158163
0.00116459
0.00138261
0.00197902
0.00224625
0.00219859
0.00291445
0.00289805
0.00283066
0.00431881
0.00480341
0.00488094
0.00548464
0.0054666
0.000114879
0.000820499
0.000908116
0.000736602
0.00074388
0.00145069
0.0015906
0.00116867
0.00135656
0.00196444
0.00224936
0.00221029
0.00289902
0.00289669
0.00278292
0.00423498
0.00474043
0.00467819
0.00522403
0.00521183
0.000124542
0.000809897
0.000911034
0.000729231
0.000752714
0.00143853
0.00159749
0.00117359
0.00132873
0.00194998
0.0022528
0.00221977
0.00288188
0.00289195
0.00273263
0.00413985
0.004673
0.00447838
0.00495119
0.00496854
0.000134826
0.000798498
0.000913746
0.000721983
0.000760733
0.00142805
0.00160215
0.00117921
0.00129937
0.00193493
0.00225743
0.00222656
0.00286224
0.00288432
0.00267972
0.00403282
0.00460029
0.0042847
0.00466684
0.00473237
0.00014576
0.000786329
0.000916055
0.00071503
0.00076771
0.00141944
0.00160455
0.00118543
0.00126895
0.00191838
0.00226376
0.00223051
0.00283887
0.00287404
0.00262464
0.00391368
0.00452108
0.00410006
0.00437389
0.00449852
0.000157368
0.000773425
0.000917746
0.000708557
0.000773415
0.00141283
0.00160477
0.0011918
0.00123826
0.00189946
0.00227187
0.00223199
0.00281029
0.00286079
0.00256829
0.00378264
0.0044336
0.00392702
0.00407609
0.00426237
0.000169675
0.000759862
0.000918571
0.000702779
0.00077766
0.00140832
0.00160297
0.00119754
0.00120831
0.00187745
0.00228128
0.00223222
0.00277533
0.00284359
0.00251148
0.00364043
0.00433612
0.00376748
0.00377794
0.00401933
0.000182668
0.000745804
0.000918144
0.000697812
0.000780384
0.00140586
0.00159959
0.00120193
0.00117972
0.00185195
0.00229092
0.00223266
0.00273384
0.00282085
0.00245478
0.00348867
0.00422732
0.00362243
0.0034832
0.00376452
0.00019631
0.000731454
0.000916107
0.000693697
0.000781571
0.00140556
0.00159544
0.00120408
0.0011527
0.00182318
0.00229924
0.00223399
0.00268611
0.00279116
0.00239869
0.00332943
0.00410586
0.0034918
0.00319614
0.0034936
0.000210554
0.000717046
0.000912118
0.000690473
0.000781261
0.00140761
0.00159146
0.00120331
0.00112734
0.00179191
0.00230447
0.00223599
0.0026328
0.00275334
0.00234349
0.00316503
0.00397013
0.00337396
0.00292516
0.00320546
0.000225305
0.000702855
0.000905919
0.000688027
0.000779713
0.00140959
0.00158855
0.00119944
0.00110314
0.00175906
0.00230538
0.00223789
0.00257516
0.00270661
0.00228866
0.00299821
0.00381957
0.00326535
0.00267861
0.00290413
0.000240434
0.000689211
0.000897304
0.000686047
0.000777292
0.00141105
0.00158728
0.00119262
0.00107896
0.00172555
0.00230177
0.00223824
0.00251408
0.00265087
0.00223322
0.00283128
0.00365542
0.00316131
0.00246052
0.00259834
0.000255767
0.000676463
0.000886134
0.00068414
0.000774481
0.00141125
0.00158783
0.00118347
0.00105336
0.00169163
0.0022944
0.00223559
0.00244902
0.00258694
0.00217677
0.00266569
0.00347989
0.00305737
0.00227139
0.00229853
0.00027109
0.000664932
0.00087251
0.000681751
0.000771891
0.00140963
0.00159035
0.00117295
0.00102498
0.00165713
0.00228418
0.00222903
0.00237899
0.00251549
0.0021202
0.00250328
0.00329435
0.00294985
0.00211004
0.00201475
0.000286155
0.000654955
0.000856649
0.00067811
0.00077008
0.00140611
0.00159433
0.00116244
0.000993097
0.0016211
0.00227164
0.00221845
0.00230345
0.00243566
0.00206426
0.00234611
0.00309913
0.00283818
0.00197511
0.00175721
0.000300675
0.000646765
0.000839248
0.000672248
0.000769309
0.00140074
0.00159854
0.00115332
0.000957833
0.00158139
0.00225715
0.00220546
0.00222251
0.00234565
0.00200811
0.00219683
0.00289699
0.00271662
0.00186166
0.00153412
0.000314383
0.000640537
0.000821044
0.000663224
0.000769403
0.00139402
0.00160182
0.00114637
0.000919763
0.00153601
0.0022403
0.00219166
0.002137
0.00224392
0.00194963
0.00205868
0.00269319
0.00258275
0.00175939
0.00134765
0.000327019
0.000636317
0.000802843
0.000650313
0.000769825
0.00138705
0.00160298
0.00114165
0.000880528
0.00148348
0.00221893
0.0021788
0.00204956
0.00213009
0.00188659
0.00193246
0.00249269
0.00243915
0.00165778
0.00119212
0.000338335
0.000633948
0.000785828
0.000633054
0.000769497
0.0013811
0.00160114
0.00113835
0.000842424
0.00142339
0.0021895
0.00216754
0.00196433
0.00200446
0.00181572
0.00181791
0.00230001
0.00229133
0.00155222
0.00105387
0.000348135
0.000633143
0.000771112
0.000611323
0.000766781
0.00137748
0.00159643
0.0011349
0.000806997
0.00135651
0.00214915
0.00215724
0.00188586
0.00186872
0.00173291
0.00171464
0.00211747
0.0021424
0.00144831
0.000919968
0.000356269
0.000633451
0.000759718
0.000585374
0.000759956
0.00137718
0.00158976
0.00112896
0.000774924
0.00128519
0.00209641
0.00214569
0.00181786
0.00172818
0.00163445
0.00161926
0.0019471
0.00199401
0.00135292
0.000789573
0.000362652
0.000634299
0.000752469
0.000556003
0.000747862
0.00138
0.0015829
0.00111821
0.000745829
0.0012135
0.00203103
0.00216184
0.00176023
0.00159088
0.00152085
0.00152469
0.00179364
0.00184704
0.00126695
0.00067187
0.000367285
0.000635051
0.000749915
0.000524645
0.000726962
0.00138495
0.00157854
0.00110162
0.000717849
0.00114471
0.00195248
0.0021243
0.00171035
0.00146405
0.00139525
0.00142338
0.00165182
0.00170367
0.00118856
0.000572618
0.000370288
0.000634959
0.000752352
0.00049328
0.000695223
0.00138991
0.00157984
0.00107977
0.000686665
0.00108026
0.00186549
0.00207172
0.00166422
0.00135099
0.00126341
0.00131248
0.00151539
0.00156603
0.00111624
0.00049534
0.000371889
0.00063324
0.000759761
0.000464224
0.000651968
0.00139137
0.00158904
0.00105462
0.000647514
0.00102001
0.00177715
0.00200398
0.00161417
0.00125091
0.00114079
0.00119477
0.00137779
0.00142781
0.00104568
0.000443323
0.000372417
0.000629231
0.000771472
0.000439864
0.000597331
0.00138484
0.00160668
0.00103032
0.000597402
0.000961055
0.00169339
0.00192427
0.00155074
0.00116639
0.00102945
0.00107798
0.00123924
0.00128054
0.000967659
0.000415884
0.000372292
0.00062238
0.000785548
0.00042228
0.000530855
0.00136586
0.00163216
0.00101248
0.000535153
0.000896965
0.0016177
0.00183997
0.00147188
0.00107583
0.000930442
0.000972428
0.00110536
0.0011256
0.000863953
0.000398365
0.000371961
0.000612002
0.000800389
0.000413622
0.000459373
0.00133028
0.00166333
0.00100718
0.000462111
0.000819612
0.00154984
0.00176121
0.00137896
0.000976228
0.000841562
0.000883302
0.000987271
0.000974413
0.000727569
0.000363471
0.000371982
0.000597534
0.000814435
0.000415794
0.00038435
0.00127455
0.00169543
0.00101924
0.000383105
0.000722382
0.00148455
0.00169672
0.00128124
0.000859588
0.000750177
0.00081015
0.000890609
0.000839137
0.000574202
0.000279097
0.000372831
0.000579003
0.000825358
0.000429613
0.000309523
0.0011967
0.00172187
0.00105047
0.000307005
0.000602482
0.00141113
0.00164972
0.00119453
0.000727205
0.000639208
0.000748193
0.000818847
0.00073028
0.000425274
0.000142393
0.000374888
0.000556819
0.00083074
0.000454971
0.00023957
0.00109683
0.00173533
0.00110079
0.000244148
0.000461142
0.00131781
0.00161746
0.00113158
0.000587783
0.000498433
0.00067949
0.000772266
0.000651048
0.000301477
-1.83287e-05
0.000378344
0.000531553
0.000828613
0.000490176
0.000179459
0.000976653
0.00172802
0.00116683
0.000204198
0.00030369
0.00119467
0.00159032
0.00109885
0.000460259
0.000331303
0.000580821
0.000743633
0.00060746
0.000211055
-0.000173496
0.000383145
0.000504239
0.000817521
0.000531408
0.000133356
0.000840212
0.0016931
0.00124163
0.00019457
0.000140461
0.00103609
0.00155438
0.00109653
0.000363072
0.000149167
0.000438238
0.000706682
0.000599847
0.000159911
-0.000300849
0.00038911
0.000476151
0.000795756
0.000575291
0.00010527
0.00069433
0.00162572
0.0013159
0.000219101
-1.44311e-05
0.000843024
0.00149382
0.00111881
0.000307782
-2.85687e-05
0.000254912
0.000630972
0.00061479
0.000158338
-0.000389887
0.00039577
0.000448716
0.000763083
0.000617374
9.74833e-05
0.000547494
0.00152344
0.00137858
0.000277982
-0.000145612
0.000621898
0.00139407
0.00115142
0.000299086
-0.000179424
4.49973e-05
0.000500067
0.000618051
0.000203138
-0.00042574
0.000402309
0.000423375
0.000720328
0.000652171
0.000110538
0.000409236
0.00138769
0.00141851
0.000365351
-0.000240655
0.000384522
0.00124612
0.00117465
0.000334139
-0.000286628
-0.000171819
0.000316661
0.000573872
0.000272915
-0.000394692
0.000407982
0.000400924
0.000668708
0.000675975
0.000141918
0.000281613
0.00122242
0.00142603
0.000470631
-0.000290847
0.000149248
0.00104973
0.00116811
0.00040277
-0.000339317
-0.000371267
9.78505e-05
0.000465315
0.0003251
-0.000305603
0.000411825
0.000381755
0.000611872
0.000686002
0.00018648
0.000182166
0.00103632
0.00139366
0.000579475
-0.00029284
-6.36707e-05
0.000813543
0.00111456
0.00048394
-0.000334709
-0.000534163
-0.000135925
0.000298261
0.000321309
-0.000189344
0.000412963
0.000366007
0.000550837
0.000679896
0.000237876
0.000108278
0.000841758
0.00131843
0.000675703
-0.000249018
-0.000237603
0.000552499
0.00100452
0.000551153
-0.000279209
-0.00064465
-0.000361584
9.24172e-05
0.000247121
-9.67037e-05
0.000410771
0.000353656
0.000493611
0.000657066
0.000289484
6.20608e-05
0.000652463
0.00120269
0.000744973
-0.000170018
-0.000361462
0.00028879
0.000840048
0.000581462
-0.000190069
-0.000692726
-0.000559705
-0.000131762
0.000112816
-6.45843e-05
0.00040492
0.000344126
0.000440023
0.000618681
0.000333347
4.41222e-05
0.000479355
0.00105206
0.000776596
-7.25311e-05
-0.00043113
4.57838e-05
0.000632168
0.000559675
-9.63519e-05
-0.000681806
-0.000712266
-0.000354008
-6.08284e-05
-0.000103121
0.000395371
0.000338836
0.000391824
0.000567491
0.000363671
4.51644e-05
0.000329961
0.000877594
0.000765577
2.49393e-05
-0.000449096
-0.00015856
0.000398681
0.000481394
-2.52438e-05
-0.000626203
-0.000805827
-0.000555762
-0.000254367
-0.000199633
0.000382146
0.000330285
0.000349748
0.000507707
0.000376818
6.04547e-05
0.000209495
0.000693967
0.00071286
0.000105833
-0.000425374
-0.00031394
0.000163301
0.000354034
5.44338e-06
-0.000551716
-0.000841421
-0.000719522
-0.000449357
-0.000333775
0.000365563
0.000320573
0.000313938
0.000444039
0.00037191
8.13851e-05
0.000118301
0.000515142
0.000623376
0.000157885
-0.000377086
-0.000418304
-5.25018e-05
0.000191205
-1.21645e-05
-0.000485338
-0.000831975
-0.000833681
-0.000628645
-0.000487237
0.000346032
0.00030875
0.000283875
0.000380721
0.000350389
9.9724e-05
5.42375e-05
0.000352081
0.000506376
0.000174814
-0.00032208
-0.000476683
-0.000234133
1.20091e-05
-7.49725e-05
-0.000445323
-0.000798613
-0.000899193
-0.000777899
-0.000643161
0.000324264
0.000294185
0.000257762
0.000320881
0.0003151
0.00010966
1.18204e-05
0.000211391
0.00037429
0.000156786
-0.000274858
-0.00049907
-0.000375019
-0.000163673
-0.000171986
-0.000440386
-0.00076378
-0.000926968
-0.000889381
-0.000786935
0.00030088
0.000276549
0.000234095
0.000266202
0.000270075
0.000108176
-1.6556e-05
9.54629e-05
0.000239541
0.000108904
-0.000245624
-0.000500159
-0.000476746
-0.000321508
-0.000289068
-0.000470009
-0.00074298
-0.000932834
-0.000964869
-0.000908217
0.00027639
0.00025606
0.000211408
0.000217173
0.000219729
9.46586e-05
-3.8094e-05
2.89945e-06
0.000111988
3.87925e-05
-0.000239321
-0.000493835
-0.000545474
-0.000453561
-0.000411128
-0.000526462
-0.000743671
-0.00093295
-0.00101245
-0.0010028
0.000251262
0.000233188
0.000188453
0.000173472
0.000167848
7.04573e-05
-5.83839e-05
-6.97585e-05
-2.05163e-06
-4.40793e-05
-0.000255556
-0.000490137
-0.000589924
-0.000557999
-0.000526494
-0.000599605
-0.000766003
-0.00093823
-0.00104289
-0.00107274
0.000225811
0.000208516
0.000164652
0.000134328
0.000117187
3.81253e-05
-8.07892e-05
-0.000127129
-9.99435e-05
-0.000130686
-0.000290173
-0.000495218
-0.000620184
-0.000637855
-0.000628241
-0.000679358
-0.000805276
-0.000953646
-0.0010662
-0.00112332
0.000200337
0.000182787
0.000139867
9.87856e-05
6.94744e-05
6.43172e-07
-0.000106777
-0.000174209
-0.000181961
-0.000214246
-0.000337412
-0.000511397
-0.000644478
-0.000697954
-0.00071356
-0.000757593
-0.000854989
-0.00097943
-0.00108901
-0.00116153
0.000175152
0.000156693
0.000114361
6.60556e-05
2.55555e-05
-3.91199e-05
-0.000136302
-0.000215024
-0.000250089
-0.000290623
-0.000391153
-0.000537634
-0.000668093
-0.000744214
-0.000783021
-0.00082914
-0.000908979
-0.00101315
-0.00111445
-0.00119323
0.000150594
0.000130884
8.86301e-05
3.56058e-05
-1.43075e-05
-7.87906e-05
-0.000168266
-0.000252077
-0.000306709
-0.000357899
-0.000446133
-0.000570982
-0.000693573
-0.00078181
-0.000838719
-0.000891461
-0.000962317
-0.00105137
-0.00114299
-0.00122213
0.000127058
0.000105994
6.33272e-05
7.20981e-06
-5.01169e-05
-0.000116615
-0.000201099
-0.000286494
-0.000354152
-0.000415695
-0.000498547
-0.00060797
-0.000721306
-0.00081436
-0.000883603
-0.000943922
-0.00101157
-0.00109065
-0.0011735
-0.00124996
0.000105001
8.26358e-05
3.92221e-05
-1.90105e-05
-8.18986e-05
-0.000151347
-0.000233236
-0.000318609
-0.000394346
-0.00046446
-0.000545877
-0.000645219
-0.00075018
-0.000843817
-0.000920448
-0.000987226
-0.00105481
-0.00112807
-0.00120412
-0.00127688
8.4962e-05
6.14362e-05
1.71225e-05
-4.26495e-05
-0.000109548
-0.000182002
-0.000263027
-0.000348137
-0.000428648
-0.000505009
-0.000586867
-0.000680011
-0.000778361
-0.00087065
-0.000951168
-0.00102264
-0.00109143
-0.00116171
-0.00123305
-0.00130229
6.75416e-05
4.30899e-05
-2.11135e-06
-6.30828e-05
-0.000132823
-0.000207846
-0.000288878
-0.000373699
-0.000457035
-0.000537839
-0.000621034
-0.000710601
-0.000803873
-0.000894001
-0.000976206
-0.00105076
-0.00112111
-0.0011903
-0.00125888
-0.00132542
5.32977e-05
2.80985e-05
-1.77914e-05
-7.95057e-05
-0.000150985
-0.000227826
-0.000309074
-0.000393554
-0.000478317
-0.000561982
-0.000646492
-0.000734103
-0.000823834
-0.000911784
-0.000994384
-0.00107074
-0.00114227
-0.00121083
-0.00127735
-0.00134161
4.24755e-05
1.61274e-05
-3.09563e-05
-9.38691e-05
-0.000166863
-0.000245358
-0.000327429
-0.000412054
-0.000497566
-0.000582855
-0.000668547
-0.000755689
-0.000843666
-0.000930049
-0.0010123
-0.00108935
-0.0011617
-0.00123042
-0.00129628
-0.00135942
0.0176721
0.0104285
0.00164705
-0.00460584
-0.00651281
-0.00592335
-0.00516356
-0.00480288
-0.00451699
-0.00419183
-0.00406155
-0.00423338
-0.00442308
-0.00442577
-0.00440938
-0.00444289
-0.00449319
-0.00463404
-0.00477042
-0.00477298
-0.00476521
-0.00486733
-0.00501391
-0.00509832
-0.00511771
-0.0051731
-0.00529968
-0.00540027
-0.00543103
-0.00547347
-0.00555506
-0.00560246
-0.00560638
-0.00562602
-0.00565435
-0.00565718
-0.00565667
-0.00566938
-0.00567827
-0.00568634
-0.00570311
-0.00571643
-0.00572519
-0.00574429
-0.00577181
-0.00579593
-0.0058192
-0.00584934
-0.00588481
-0.00592157
-0.00596046
-0.00600335
-0.00604982
-0.00609905
-0.00615107
-0.00620611
-0.00626407
-0.00632481
-0.00638828
-0.00645456
-0.00652355
-0.00659535
-0.00666974
-0.00674691
-0.00682637
-0.00690851
-0.00699255
-0.00707929
-0.00716753
-0.00725863
-0.00735082
-0.00744615
-0.00754226
-0.00764166
-0.00774185
-0.00784503
-0.00794971
-0.00805626
-0.00816597
-0.00827556
-0.0083906
-0.00850347
-0.00862324
-0.00874081
-0.00886361
-0.00898805
-0.00911222
-0.00924452
-0.00937098
-0.00950849
-0.00964174
-0.0097795
-0.00992329
-0.0100605
-0.0102112
-0.0103547
-0.0105086
-0.0106614
-0.0108386
-0.011042
0.0167819
0.0102754
0.00173497
-0.00446059
-0.00642754
-0.00588416
-0.0051399
-0.00478666
-0.00450499
-0.00418174
-0.0040525
-0.00422584
-0.00441712
-0.0044206
-0.00440475
-0.00443883
-0.00448936
-0.00463063
-0.00476763
-0.00477041
-0.00476266
-0.00486498
-0.0050119
-0.00509659
-0.00511609
-0.00517154
-0.00529835
-0.0053992
-0.00543007
-0.00547258
-0.00555433
-0.00560189
-0.00560587
-0.00562556
-0.00565401
-0.0056569
-0.00565642
-0.00566918
-0.0056781
-0.0056862
-0.005703
-0.00571635
-0.00572512
-0.00574424
-0.00577177
-0.00579591
-0.00581918
-0.00584933
-0.0058848
-0.00592156
-0.00596045
-0.00600335
-0.00604983
-0.00609905
-0.00615107
-0.00620611
-0.00626407
-0.00632481
-0.00638828
-0.00645456
-0.00652355
-0.00659535
-0.00666975
-0.00674691
-0.00682637
-0.00690851
-0.00699255
-0.00707929
-0.00716753
-0.00725863
-0.00735082
-0.00744615
-0.00754226
-0.00764166
-0.00774185
-0.00784503
-0.00794971
-0.00805626
-0.00816597
-0.00827556
-0.0083906
-0.00850347
-0.00862324
-0.00874081
-0.00886361
-0.00898805
-0.00911222
-0.00924452
-0.00937098
-0.00950849
-0.00964174
-0.0097795
-0.00992329
-0.0100605
-0.0102112
-0.0103547
-0.0105086
-0.0106614
-0.0108386
-0.011042
0.0159849
0.0101366
0.00191374
-0.00419374
-0.00627833
-0.00582901
-0.00511386
-0.00476753
-0.0044896
-0.00416987
-0.00404309
-0.00421778
-0.00440999
-0.00441432
-0.00439964
-0.00443474
-0.00448563
-0.00462728
-0.00476483
-0.00476782
-0.00476019
-0.00486279
-0.00501
-0.00509487
-0.00511444
-0.00517
-0.00529705
-0.00539811
-0.00542905
-0.00547164
-0.00555359
-0.0056013
-0.0056053
-0.00562508
-0.00565364
-0.00565658
-0.00565614
-0.00566896
-0.00567793
-0.00568604
-0.00570288
-0.00571626
-0.00572504
-0.00574417
-0.00577172
-0.00579587
-0.00581915
-0.0058493
-0.00588479
-0.00592155
-0.00596045
-0.00600335
-0.00604982
-0.00609905
-0.00615107
-0.00620611
-0.00626407
-0.00632481
-0.00638829
-0.00645456
-0.00652355
-0.00659535
-0.00666975
-0.00674691
-0.00682637
-0.00690851
-0.00699255
-0.00707929
-0.00716753
-0.00725863
-0.00735082
-0.00744615
-0.00754226
-0.00764166
-0.00774185
-0.00784503
-0.00794971
-0.00805626
-0.00816597
-0.00827556
-0.0083906
-0.00850347
-0.00862324
-0.00874081
-0.00886361
-0.00898806
-0.00911222
-0.00924452
-0.00937097
-0.00950849
-0.00964174
-0.0097795
-0.00992329
-0.0100605
-0.0102112
-0.0103547
-0.0105086
-0.0106614
-0.0108386
-0.011042
0.0152296
0.00998556
0.00213576
-0.00385481
-0.00606835
-0.00574683
-0.00507458
-0.00473743
-0.00446486
-0.00415291
-0.00403206
-0.00420817
-0.00439992
-0.00440487
-0.00439226
-0.00442935
-0.004481
-0.00462277
-0.00476068
-0.00476429
-0.00475727
-0.00486017
-0.00500743
-0.00509243
-0.00511223
-0.00516798
-0.00529522
-0.00539645
-0.00542751
-0.00547028
-0.00555247
-0.00560032
-0.00560441
-0.00562432
-0.00565303
-0.00565605
-0.00565569
-0.00566861
-0.00567763
-0.00568578
-0.00570267
-0.0057161
-0.0057249
-0.00574405
-0.00577164
-0.0057958
-0.00581909
-0.00584926
-0.00588476
-0.00592153
-0.00596043
-0.00600333
-0.00604981
-0.00609904
-0.00615107
-0.00620611
-0.00626407
-0.00632481
-0.00638829
-0.00645456
-0.00652355
-0.00659535
-0.00666975
-0.00674691
-0.00682637
-0.00690851
-0.00699255
-0.00707929
-0.00716753
-0.00725863
-0.00735082
-0.00744615
-0.00754226
-0.00764166
-0.00774185
-0.00784503
-0.00794971
-0.00805626
-0.00816597
-0.00827556
-0.0083906
-0.00850347
-0.00862324
-0.00874081
-0.00886361
-0.00898806
-0.00911222
-0.00924452
-0.00937097
-0.00950849
-0.00964174
-0.0097795
-0.00992329
-0.0100605
-0.0102112
-0.0103547
-0.0105086
-0.0106614
-0.0108386
-0.0110421
0.0144799
0.00980713
0.00236686
-0.00349258
-0.00583267
-0.00565113
-0.00502794
-0.00469854
-0.00443089
-0.00413016
-0.00401875
-0.00419642
-0.00438617
-0.0043914
-0.0043817
-0.00442192
-0.00447495
-0.00461636
-0.00475413
-0.00475905
-0.00475357
-0.0048568
-0.00500363
-0.0050887
-0.00510907
-0.00516514
-0.00529233
-0.00539361
-0.00542497
-0.00546808
-0.00555049
-0.00559855
-0.00560286
-0.005623
-0.0056519
-0.00565507
-0.00565487
-0.00566796
-0.00567709
-0.0056853
-0.00570226
-0.00571577
-0.00572464
-0.00574384
-0.00577146
-0.00579565
-0.00581897
-0.00584917
-0.00588469
-0.00592147
-0.00596038
-0.0060033
-0.00604979
-0.00609903
-0.00615105
-0.00620611
-0.00626406
-0.00632481
-0.00638828
-0.00645456
-0.00652355
-0.00659535
-0.00666975
-0.00674691
-0.00682637
-0.00690851
-0.00699255
-0.00707929
-0.00716753
-0.00725863
-0.00735082
-0.00744615
-0.00754226
-0.00764166
-0.00774185
-0.00784503
-0.00794971
-0.00805626
-0.00816597
-0.00827556
-0.0083906
-0.00850347
-0.00862324
-0.00874081
-0.00886361
-0.00898806
-0.00911222
-0.00924452
-0.00937097
-0.00950849
-0.00964174
-0.0097795
-0.00992329
-0.0100605
-0.0102112
-0.0103547
-0.0105086
-0.0106614
-0.0108386
-0.0110422
0.0137381
0.00960144
0.00259124
-0.00312592
-0.00558538
-0.00555024
-0.0049803
-0.00465618
-0.00439145
-0.00410332
-0.00400354
-0.00418291
-0.00436964
-0.00437478
-0.00436834
-0.0044125
-0.00446743
-0.00460784
-0.00474485
-0.00475176
-0.00474888
-0.00485248
-0.00499828
-0.00508332
-0.00510477
-0.00516133
-0.00528807
-0.00538919
-0.0054211
-0.0054647
-0.00554729
-0.0055956
-0.00560033
-0.00562082
-0.00564995
-0.00565338
-0.00565348
-0.00566683
-0.00567613
-0.00568445
-0.00570151
-0.00571516
-0.00572417
-0.00574346
-0.00577112
-0.00579536
-0.00581874
-0.005849
-0.00588455
-0.00592135
-0.00596029
-0.00600323
-0.00604974
-0.00609899
-0.00615103
-0.00620609
-0.00626405
-0.0063248
-0.00638828
-0.00645456
-0.00652355
-0.00659535
-0.00666975
-0.00674691
-0.00682637
-0.00690851
-0.00699255
-0.00707929
-0.00716753
-0.00725863
-0.00735082
-0.00744615
-0.00754226
-0.00764166
-0.00774185
-0.00784503
-0.00794971
-0.00805626
-0.00816598
-0.00827556
-0.0083906
-0.00850347
-0.00862324
-0.00874081
-0.00886361
-0.00898806
-0.00911222
-0.00924452
-0.00937097
-0.00950849
-0.00964174
-0.0097795
-0.00992329
-0.0100605
-0.0102112
-0.0103547
-0.0105086
-0.0106614
-0.0108386
-0.0110423
0.0130132
0.00936796
0.00279896
-0.00276086
-0.00532763
-0.00544365
-0.00493233
-0.00461242
-0.0043486
-0.00407331
-0.00398647
-0.00416806
-0.00435151
-0.0043564
-0.00435332
-0.00440175
-0.00445875
-0.00459755
-0.00473323
-0.00474265
-0.00474322
-0.0048472
-0.00499138
-0.00507629
-0.00509934
-0.00515656
-0.00528241
-0.00538311
-0.00541578
-0.00546001
-0.00554266
-0.00559127
-0.00559665
-0.0056176
-0.00564701
-0.00565081
-0.00565135
-0.00566507
-0.00567463
-0.00568312
-0.00570032
-0.00571417
-0.0057234
-0.00574283
-0.00577055
-0.00579487
-0.00581836
-0.0058487
-0.00588429
-0.00592114
-0.00596013
-0.00600311
-0.00604964
-0.00609891
-0.00615097
-0.00620605
-0.00626403
-0.00632479
-0.00638827
-0.00645456
-0.00652354
-0.00659535
-0.00666975
-0.00674691
-0.00682637
-0.00690851
-0.00699255
-0.00707929
-0.00716753
-0.00725863
-0.00735082
-0.00744615
-0.00754226
-0.00764166
-0.00774185
-0.00784503
-0.00794971
-0.00805626
-0.00816598
-0.00827556
-0.0083906
-0.00850347
-0.00862324
-0.00874081
-0.00886361
-0.00898806
-0.00911222
-0.00924452
-0.00937097
-0.00950849
-0.00964174
-0.0097795
-0.00992329
-0.0100605
-0.0102112
-0.0103547
-0.0105086
-0.0106614
-0.0108385
-0.0110424
0.012311
0.00910405
0.00298396
-0.0023971
-0.00505538
-0.00532779
-0.0048834
-0.00456838
-0.00430336
-0.00404042
-0.00396751
-0.0041521
-0.00433236
-0.00433696
-0.00433729
-0.00439013
-0.00444922
-0.00458603
-0.00472002
-0.00473223
-0.00473674
-0.00484111
-0.00498326
-0.0050679
-0.00509291
-0.00515096
-0.00527555
-0.00537559
-0.0054092
-0.00545414
-0.0055367
-0.0055856
-0.00559181
-0.00561333
-0.00564305
-0.00564734
-0.00564845
-0.00566262
-0.00567254
-0.00568126
-0.00569863
-0.00571274
-0.00572229
-0.00574191
-0.00576971
-0.00579414
-0.00581778
-0.00584824
-0.0058839
-0.00592081
-0.00595986
-0.0060029
-0.00604948
-0.00609878
-0.00615087
-0.00620598
-0.00626397
-0.00632475
-0.00638825
-0.00645454
-0.00652354
-0.00659535
-0.00666974
-0.00674691
-0.00682637
-0.00690851
-0.00699255
-0.00707929
-0.00716753
-0.00725863
-0.00735082
-0.00744615
-0.00754226
-0.00764166
-0.00774185
-0.00784503
-0.00794971
-0.00805626
-0.00816597
-0.00827556
-0.0083906
-0.00850347
-0.00862324
-0.00874082
-0.00886361
-0.00898806
-0.00911222
-0.00924452
-0.00937097
-0.00950849
-0.00964175
-0.0097795
-0.00992329
-0.0100605
-0.0102112
-0.0103547
-0.0105085
-0.0106614
-0.0108385
-0.0110426
0.0116344
0.00881231
0.00314587
-0.00203292
-0.00476643
-0.00520126
-0.00483408
-0.00452547
-0.00425657
-0.00400482
-0.00394665
-0.00413513
-0.00431239
-0.00431664
-0.00432041
-0.00437775
-0.00443903
-0.00457374
-0.00470583
-0.00472088
-0.00472962
-0.00483443
-0.00497429
-0.00505853
-0.00508569
-0.00514469
-0.00526781
-0.005367
-0.00540165
-0.00544736
-0.00552971
-0.00557888
-0.00558602
-0.00560814
-0.00563819
-0.00564307
-0.00564486
-0.00565956
-0.0056699
-0.00567889
-0.00569646
-0.00571088
-0.00572084
-0.00574069
-0.00576858
-0.00579315
-0.005817
-0.00584761
-0.00588336
-0.00592035
-0.00595949
-0.0060026
-0.00604923
-0.00609859
-0.00615072
-0.00620586
-0.00626389
-0.00632469
-0.00638821
-0.00645452
-0.00652352
-0.00659534
-0.00666974
-0.00674691
-0.00682637
-0.00690851
-0.00699255
-0.00707929
-0.00716753
-0.00725863
-0.00735082
-0.00744615
-0.00754226
-0.00764166
-0.00774185
-0.00784503
-0.00794971
-0.00805626
-0.00816597
-0.00827556
-0.0083906
-0.00850347
-0.00862324
-0.00874082
-0.00886361
-0.00898806
-0.00911222
-0.00924452
-0.00937098
-0.00950849
-0.00964175
-0.0097795
-0.00992329
-0.0100606
-0.0102112
-0.0103547
-0.0105085
-0.0106613