/*--------------------------------*- C++ -*----------------------------------*\
| =========                 |                                                 |
| \\      /  F ield         | OpenFOAM: The Open Source CFD Toolbox           |
|  \\    /   O peration     | Version:  2106                                  |
|   \\  /    A nd           | Website:  www.openfoam.com                      |
|    \\/     M anipulation  |                                                 |
\*---------------------------------------------------------------------------*/
FoamFile
{
    version     2.0;
    format      ascii;
    arch        "LSB;label=32;scalar=64";
    class       surfaceScalarField;
    location    "0.985";
    object      phi;
}
// * * * * * * * * * * * * * * * * * * * * * * * * * * * * * * * * * * * * * //

dimensions      [0 3 -1 0 0 0 0];

oriented        oriented;

internalField   nonuniform List<scalar> 
19000
(
1.17509e-06
-7.8711e-07
1.15391e-06
2.83159e-07
1.17612e-06
1.09463e-07
1.18146e-06
9.87656e-08
1.20849e-06
-2.97683e-07
1.2128e-06
2.96331e-07
1.18971e-06
8.89658e-08
1.18056e-06
1.04797e-07
1.18169e-06
1.31423e-07
1.17738e-06
-1.39246e-07
1.20351e-06
-4.98966e-08
1.18357e-06
-5.6673e-07
1.21286e-06
-5.11176e-08
1.1928e-06
-2.27039e-07
1.21423e-06
3.17791e-08
1.19635e-06
3.17339e-08
1.19829e-06
8.6767e-08
1.18667e-06
1.46916e-07
1.17825e-06
1.82616e-07
1.56186e-07
1.14733e-06
1.23399e-06
-7.96837e-07
1.21437e-06
3.0278e-07
1.23552e-06
8.83062e-08
1.243e-06
9.12887e-08
1.26944e-06
-3.24126e-07
1.27717e-06
2.88606e-07
1.25084e-06
1.1529e-07
1.24418e-06
1.11466e-07
1.23963e-06
1.35965e-07
1.23851e-06
-1.38129e-07
1.25719e-06
-6.85731e-08
1.24067e-06
-5.50209e-07
1.26338e-06
-7.3826e-08
1.25457e-06
-2.18229e-07
1.26429e-06
2.20594e-08
1.26518e-06
3.08416e-08
1.24549e-06
1.06456e-07
1.25835e-06
1.34054e-07
1.22098e-06
2.19988e-07
1.46162e-07
1.23101e-06
1.29282e-06
-8.0687e-07
1.28359e-06
3.12011e-07
1.29876e-06
7.31349e-08
1.3097e-06
8.03458e-08
1.33191e-06
-3.46331e-07
1.34557e-06
2.74944e-07
1.31592e-06
1.4494e-07
1.31208e-06
1.15299e-07
1.30219e-06
1.45863e-07
1.30277e-06
-1.3871e-07
1.31203e-06
-7.78318e-08
1.30271e-06
-5.40891e-07
1.31783e-06
-8.89472e-08
1.32178e-06
-2.2218e-07
1.32231e-06
2.15347e-08
1.3321e-06
2.10468e-08
1.31021e-06
1.28344e-07
1.31558e-06
1.28682e-07
1.29584e-06
2.3973e-07
1.60548e-07
1.28146e-06
1.3518e-06
-8.1457e-07
1.35548e-06
3.08335e-07
1.36373e-06
6.48806e-08
1.37635e-06
6.77241e-08
1.39359e-06
-3.63563e-07
1.41137e-06
2.57166e-07
1.38231e-06
1.73997e-07
1.37884e-06
1.18773e-07
1.36715e-06
1.5755e-07
1.36615e-06
-1.37714e-07
1.3676e-06
-7.92789e-08
1.36336e-06
-5.36651e-07
1.37612e-06
-1.01711e-07
1.38633e-06
-2.32384e-07
1.38757e-06
2.02945e-08
1.39622e-06
1.23946e-08
1.38373e-06
1.40827e-07
1.37917e-06
1.33247e-07
1.37156e-06
2.47337e-07
1.79501e-07
1.35261e-06
1.41178e-06
-8.17998e-07
1.42643e-06
2.93686e-07
1.42903e-06
6.22844e-08
1.44032e-06
5.64345e-08
1.4535e-06
-3.76747e-07
1.47213e-06
2.38538e-07
1.44791e-06
1.98219e-07
1.44312e-06
1.2356e-07
1.43268e-06
1.67984e-07
1.42872e-06
-1.3375e-07
1.42488e-06
-7.5434e-08
1.42231e-06
-5.34082e-07
1.43549e-06
-1.1489e-07
1.44735e-06
-2.44243e-07
1.45287e-06
1.47735e-08
1.45973e-06
5.53555e-09
1.45521e-06
1.45346e-07
1.44844e-06
1.40013e-07
1.44498e-06
2.50797e-07
1.96689e-07
1.42779e-06
1.47439e-06
-8.16711e-07
1.49527e-06
2.7281e-07
1.49478e-06
6.27682e-08
1.5025e-06
4.87189e-08
1.5125e-06
-3.86753e-07
1.52938e-06
2.21661e-07
1.51194e-06
2.15656e-07
1.5063e-06
1.29203e-07
1.49836e-06
1.75928e-07
1.49253e-06
-1.2792e-07
1.48567e-06
-6.85765e-08
1.48258e-06
-5.30989e-07
1.49552e-06
-1.27833e-07
1.50696e-06
-2.55679e-07
1.51571e-06
6.02215e-09
1.52205e-06
-8.12382e-10
1.52289e-06
1.44508e-07
1.51725e-06
1.45655e-07
1.51699e-06
2.51054e-07
2.12267e-07
1.50142e-06
1.54106e-06
-8.11555e-07
1.56309e-06
2.50776e-07
1.562e-06
6.38599e-08
1.56578e-06
4.49384e-08
1.57249e-06
-3.93462e-07
1.58643e-06
2.07726e-07
1.57534e-06
2.26742e-07
1.57039e-06
1.34154e-07
1.56523e-06
1.81089e-07
1.55949e-06
-1.22185e-07
1.55162e-06
-6.0705e-08
1.54699e-06
-5.26353e-07
1.55808e-06
-1.38932e-07
1.56768e-06
-2.65279e-07
1.57778e-06
-4.07104e-09
1.58363e-06
-6.66491e-09
1.58839e-06
1.39748e-07
1.58409e-06
1.49956e-07
1.58711e-06
2.48033e-07
2.26169e-07
1.57321e-06
1.61244e-06
-8.03863e-07
1.63205e-06
2.3116e-07
1.63181e-06
6.41071e-08
1.63282e-06
4.39244e-08
1.63555e-06
-3.96197e-07
1.64642e-06
1.96858e-07
1.64026e-06
2.32907e-07
1.63722e-06
1.37187e-07
1.63489e-06
1.83421e-07
1.63071e-06
-1.18003e-07
1.6234e-06
-5.33925e-08
1.61688e-06
-5.19837e-07
1.62506e-06
-1.47106e-07
1.63157e-06
-2.71795e-07
1.64148e-06
-1.39821e-08
1.64601e-06
-1.11883e-08
1.65347e-06
1.32285e-07
1.6499e-06
1.53525e-07
1.65558e-06
2.42353e-07
2.38054e-07
1.6437e-06
1.68844e-06
-7.9473e-07
1.70412e-06
2.15478e-07
1.70511e-06
6.31222e-08
1.70499e-06
4.4045e-08
1.7034e-06
-3.94605e-07
1.71162e-06
1.8863e-07
1.70901e-06
2.3552e-07
1.70829e-06
1.3791e-07
1.70858e-06
1.83127e-07
1.70648e-06
-1.15901e-07
1.7007e-06
-4.76076e-08
1.6923e-06
-5.11445e-07
1.69732e-06
-1.52117e-07
1.69994e-06
-2.74424e-07
1.70867e-06
-2.27097e-08
1.71095e-06
-1.34636e-08
1.71985e-06
1.23384e-07
1.71629e-06
1.57087e-07
1.72361e-06
2.35032e-07
2.47685e-07
1.71398e-06
1.76875e-06
-7.84755e-07
1.7806e-06
2.03623e-07
1.78257e-06
6.11558e-08
1.78257e-06
4.4046e-08
1.77702e-06
-3.89057e-07
1.7833e-06
1.82353e-07
1.78321e-06
2.35608e-07
1.78455e-06
1.3657e-07
1.78694e-06
1.80734e-07
1.78667e-06
-1.15629e-07
1.78277e-06
-4.37065e-08
1.77266e-06
-5.01338e-07
1.77493e-06
-1.54389e-07
1.7735e-06
-2.72988e-07
1.7806e-06
-2.98151e-08
1.78004e-06
-1.29022e-08
1.78928e-06
1.14144e-07
1.78518e-06
1.61192e-07
1.79305e-06
2.27156e-07
2.54891e-07
1.78585e-06
1.85313e-06
-7.7414e-07
1.86211e-06
1.94646e-07
1.86459e-06
5.86772e-08
1.86534e-06
4.32994e-08
1.85672e-06
-3.80438e-07
1.86184e-06
1.77232e-07
1.8635e-06
2.33945e-07
1.86638e-06
1.33687e-07
1.87016e-06
1.76954e-07
1.87108e-06
-1.16545e-07
1.86895e-06
-4.15725e-08
1.85734e-06
-4.89733e-07
1.85765e-06
-1.54703e-07
1.85252e-06
-2.6785e-07
1.85809e-06
-3.53906e-08
1.85459e-06
-9.40439e-09
1.86342e-06
1.05316e-07
1.85859e-06
1.66027e-07
1.86605e-06
2.19696e-07
2.59508e-07
1.86143e-06
1.9416e-06
-7.62905e-07
1.94883e-06
1.87416e-07
1.95137e-06
5.61466e-08
1.95302e-06
4.16459e-08
1.94231e-06
-3.69731e-07
1.94704e-06
1.72506e-07
1.94985e-06
2.31131e-07
1.95375e-06
1.29788e-07
1.95823e-06
1.7247e-07
1.95965e-06
-1.17966e-07
1.95891e-06
-4.08281e-08
1.946e-06
-4.76827e-07
1.94522e-06
-1.53915e-07
1.93702e-06
-2.59658e-07
1.94154e-06
-3.9911e-08
1.93546e-06
-3.32333e-09
1.94351e-06
9.72661e-08
1.93818e-06
1.71364e-07
1.94442e-06
2.13457e-07
2.61375e-07
1.94255e-06
2.03431e-06
-7.51021e-07
2.04075e-06
1.80968e-07
2.04296e-06
5.39357e-08
2.04547e-06
3.9144e-08
2.03346e-06
-3.57722e-07
2.03839e-06
1.67573e-07
2.0419e-06
2.27623e-07
2.04642e-06
1.25266e-07
2.0511e-06
1.67786e-07
2.0525e-06
-1.19364e-07
2.05272e-06
-4.10418e-08
2.03865e-06
-4.62758e-07
2.0375e-06
-1.52766e-07
2.02694e-06
-2.49105e-07
2.03101e-06
-4.39795e-08
2.02301e-06
4.68348e-09
2.03017e-06
9.01044e-08
2.02488e-06
1.76647e-07
2.02934e-06
2.09002e-07
2.60446e-07
2.03027e-06
2.13144e-06
-7.38464e-07
2.1378e-06
1.7461e-07
2.13942e-06
5.23151e-08
2.14267e-06
3.5897e-08
2.12985e-06
-3.44906e-07
2.13538e-06
1.62046e-07
2.13926e-06
2.2374e-07
2.14418e-06
1.20352e-07
2.14878e-06
1.63185e-07
2.14983e-06
-1.20416e-07
2.15066e-06
-4.18707e-08
2.13549e-06
-4.47591e-07
2.13452e-06
-1.51796e-07
2.12219e-06
-2.36775e-07
2.12631e-06
-4.80953e-08
2.11715e-06
1.38437e-08
2.12339e-06
8.38668e-08
2.11887e-06
1.81165e-07
2.12133e-06
2.06541e-07
2.56963e-07
2.12481e-06
2.23324e-06
-7.25213e-07
2.23996e-06
1.67887e-07
2.24081e-06
5.14615e-08
2.24473e-06
3.19791e-08
2.23136e-06
-3.31529e-07
2.23766e-06
1.55737e-07
2.24172e-06
2.19688e-07
2.24691e-06
1.15155e-07
2.25134e-06
1.58761e-07
2.25187e-06
-1.20949e-07
2.25312e-06
-4.31203e-08
2.23687e-06
-4.31346e-07
2.23642e-06
-1.5134e-07
2.22275e-06
-2.23112e-07
2.22717e-06
-5.25073e-08
2.2176e-06
2.34069e-08
2.2228e-06
7.86702e-08
2.21973e-06
1.84239e-07
2.22036e-06
2.05908e-07
2.51508e-07
2.22581e-06
2.33991e-06
-7.11244e-07
2.34728e-06
1.60513e-07
2.34727e-06
5.14745e-08
2.35183e-06
2.74215e-08
2.33797e-06
-3.17676e-07
2.3451e-06
1.48614e-07
2.34919e-06
2.15592e-07
2.35463e-06
1.09719e-07
2.35891e-06
1.54474e-07
2.35885e-06
-1.20884e-07
2.36047e-06
-4.47411e-08
2.34314e-06
-4.14021e-07
2.34335e-06
-1.51549e-07
2.3287e-06
-2.0846e-07
2.33337e-06
-5.71808e-08
2.32406e-06
3.2717e-08
2.32798e-06
7.47591e-08
2.32685e-06
1.85368e-07
2.32602e-06
2.06734e-07
2.44814e-07
2.33271e-06
2.45168e-06
-6.96528e-07
2.45988e-06
1.52309e-07
2.45896e-06
5.2399e-08
2.46416e-06
2.22248e-08
2.44983e-06
-3.03347e-07
2.45771e-06
1.40735e-07
2.46178e-06
2.1152e-07
2.46742e-06
1.04079e-07
2.47168e-06
1.5021e-07
2.47097e-06
-1.20173e-07
2.47301e-06
-4.67813e-08
2.45463e-06
-3.95638e-07
2.45551e-06
-1.52425e-07
2.44018e-06
-1.93138e-07
2.44485e-06
-6.18453e-08
2.43633e-06
4.12401e-08
2.43866e-06
7.24275e-08
2.43968e-06
1.84343e-07
2.43789e-06
2.08524e-07
2.37632e-07
2.44507e-06
2.5688e-06
-6.81036e-07
2.57794e-06
1.43168e-07
2.57609e-06
5.42478e-08
2.58194e-06
1.63768e-08
2.56712e-06
-2.88524e-07
2.57565e-06
1.32204e-07
2.57968e-06
2.0749e-07
2.58547e-06
9.82906e-08
2.58986e-06
1.45816e-07
2.58846e-06
-1.1877e-07
2.591e-06
-4.93241e-08
2.57164e-06
-3.76271e-07
2.57305e-06
-1.53844e-07
2.55741e-06
-1.7749e-07
2.56165e-06
-6.60914e-08
2.55432e-06
4.85686e-08
2.55489e-06
7.1861e-08
2.55791e-06
1.81324e-07
2.55575e-06
2.10679e-07
2.30648e-07
2.56274e-06
2.69153e-06
-6.64741e-07
2.70168e-06
1.33023e-07
2.69891e-06
5.70186e-08
2.70542e-06
9.86881e-09
2.69009e-06
-2.73201e-07
2.69915e-06
1.23145e-07
2.70316e-06
2.03477e-07
2.70901e-06
9.24428e-08
2.7137e-06
1.41133e-07
2.71155e-06
-1.1662e-07
2.71465e-06
-5.2429e-08
2.69445e-06
-3.56075e-07
2.69619e-06
-1.5558e-07
2.68058e-06
-1.6188e-07
2.68397e-06
-6.94847e-08
2.67811e-06
5.44368e-08
2.67692e-06
7.30479e-08
2.68147e-06
1.76776e-07
2.67958e-06
2.12565e-07
2.244e-07
2.68583e-06
2.82015e-06
-6.47626e-07
2.83134e-06
1.2184e-07
2.82765e-06
6.07014e-08
2.83482e-06
2.70716e-09
2.81902e-06
-2.57403e-07
2.82847e-06
1.13691e-07
2.83254e-06
1.9941e-07
2.83832e-06
8.6663e-08
2.84345e-06
1.35998e-07
2.8405e-06
-1.13663e-07
2.84417e-06
-5.61014e-08
2.82337e-06
-3.35279e-07
2.82513e-06
-1.57334e-07
2.80993e-06
-1.46686e-07
2.81208e-06
-7.16291e-08
2.80779e-06
5.87268e-08
2.80505e-06
7.57813e-08
2.81054e-06
1.71292e-07
2.80947e-06
2.1363e-07
2.192e-07
2.81467e-06
2.95495e-06
-6.29677e-07
2.96719e-06
1.09601e-07
2.96261e-06
6.52785e-08
2.97039e-06
-5.0786e-09
2.95419e-06
-2.41197e-07
2.96389e-06
1.03985e-07
2.96813e-06
1.95175e-07
2.97368e-06
8.1108e-08
2.97942e-06
1.30259e-07
2.97561e-06
-1.09852e-07
2.97978e-06
-6.02725e-08
2.95868e-06
-3.14179e-07
2.96011e-06
-1.58764e-07
2.94569e-06
-1.32259e-07
2.9463e-06
-7.22387e-08
2.94353e-06
6.14887e-08
2.93961e-06
7.97059e-08
2.94547e-06
1.65429e-07
2.9456e-06
2.13498e-07
2.15108e-07
2.9497e-06
3.09622e-06
-6.10891e-07
3.10951e-06
9.63082e-08
3.10407e-06
7.07199e-08
3.11242e-06
-1.34309e-08
3.09591e-06
-2.24683e-07
3.10571e-06
9.41878e-08
3.11026e-06
1.9062e-07
3.11542e-06
7.59523e-08
3.12188e-06
1.23794e-07
3.11722e-06
-1.05187e-07
3.12174e-06
-6.47909e-08
3.10068e-06
-2.93121e-07
3.10143e-06
-1.59517e-07
3.08805e-06
-1.18879e-07
3.087e-06
-7.11851e-08
3.08556e-06
6.29288e-08
3.08086e-06
8.44018e-08
3.08667e-06
1.59622e-07
3.08818e-06
2.11988e-07
2.11963e-07
3.09133e-06
3.24429e-06
-5.9127e-07
3.25862e-06
8.19758e-08
3.25236e-06
7.69781e-08
3.26119e-06
-2.22626e-08
3.24451e-06
-2.08002e-07
3.25422e-06
8.44844e-08
3.25927e-06
1.85562e-07
3.26385e-06
7.13752e-08
3.27112e-06
1.16526e-07
3.26568e-06
-9.97484e-08
3.27032e-06
-6.9426e-08
3.24966e-06
-2.72469e-07
3.24942e-06
-1.5927e-07
3.23725e-06
-1.06716e-07
3.23456e-06
-6.8486e-08
3.23416e-06
6.33224e-08
3.22909e-06
8.94711e-08
3.23453e-06
1.54181e-07
3.23746e-06
2.09062e-07
2.0947e-07
3.23995e-06
3.39949e-06
-5.70825e-07
3.41483e-06
6.66355e-08
3.40782e-06
8.39833e-08
3.41701e-06
-3.14552e-08
3.40034e-06
-1.91324e-07
3.40973e-06
7.50875e-08
3.4155e-06
1.79795e-07
3.41933e-06
6.75415e-08
3.42741e-06
1.08453e-07
3.42136e-06
-9.37058e-08
3.42583e-06
-7.3894e-08
3.40593e-06
-2.52567e-07
3.40443e-06
-1.57775e-07
3.39352e-06
-9.57994e-08
3.38933e-06
-6.42937e-08
3.38969e-06
6.29606e-08
3.38457e-06
9.45856e-08
3.38946e-06
1.49297e-07
3.39372e-06
2.04799e-07
2.07275e-07
3.39591e-06
3.56216e-06
-5.49575e-07
3.57846e-06
5.0337e-08
3.5708e-06
9.16387e-08
3.58021e-06
-4.08579e-08
3.56374e-06
-1.74859e-07
3.57259e-06
6.62352e-08
3.57928e-06
1.73109e-07
3.58224e-06
6.45766e-08
3.59103e-06
9.9664e-08
3.58464e-06
-8.73098e-08
3.58863e-06
-7.78867e-08
3.56975e-06
-2.33683e-07
3.5669e-06
-1.54927e-07
3.5571e-06
-8.60021e-08
3.55164e-06
-5.88375e-08
3.55251e-06
6.20915e-08
3.54762e-06
9.94792e-08
3.55182e-06
1.45096e-07
3.55728e-06
1.99341e-07
2.05023e-07
3.55953e-06
3.73268e-06
-5.27548e-07
3.74987e-06
3.31493e-08
3.74169e-06
9.98187e-08
3.75112e-06
-5.02875e-08
3.7351e-06
-1.58841e-07
3.74315e-06
5.81809e-08
3.75094e-06
1.65321e-07
3.75299e-06
6.25254e-08
3.76232e-06
9.0332e-08
3.75587e-06
-8.08582e-08
3.7591e-06
-8.11119e-08
3.74139e-06
-2.15977e-07
3.73723e-06
-1.5077e-07
3.72831e-06
-7.70783e-08
3.72187e-06
-5.2399e-08
3.72302e-06
6.09391e-08
3.71858e-06
1.03919e-07
3.72202e-06
1.4166e-07
3.72847e-06
1.92892e-07
2.02389e-07
3.7311e-06
3.91142e-06
-5.04784e-07
3.92941e-06
1.51638e-08
3.92086e-06
1.08365e-07
3.93011e-06
-5.95288e-08
3.91479e-06
-1.43529e-07
3.92179e-06
5.11813e-08
3.93081e-06
1.56308e-07
3.932e-06
6.13333e-08
3.94162e-06
8.07109e-08
3.93542e-06
-7.46615e-08
3.93765e-06
-8.3338e-08
3.92114e-06
-1.99469e-07
3.91585e-06
-1.45477e-07
3.90752e-06
-6.87485e-08
3.90035e-06
-4.52335e-08
3.90159e-06
5.96972e-08
3.89786e-06
1.07656e-07
3.90047e-06
1.39051e-07
3.90763e-06
1.85725e-07
1.99075e-07
3.91095e-06
4.0988e-06
-4.81335e-07
4.11747e-06
-3.50557e-09
4.10875e-06
1.17089e-07
4.11756e-06
-6.83414e-08
4.10322e-06
-1.29193e-07
4.10895e-06
4.54563e-08
4.11921e-06
1.46044e-07
4.1197e-06
6.08454e-08
4.1293e-06
7.1111e-08
4.12364e-06
-6.90039e-08
4.12473e-06
-8.44235e-08
4.10933e-06
-1.8407e-07
4.10311e-06
-1.39255e-07
4.09515e-06
-6.07925e-08
4.08742e-06
-3.75056e-08
4.08865e-06
5.84688e-08
4.08582e-06
1.10492e-07
4.08763e-06
1.37239e-07
4.09514e-06
1.78216e-07
1.94836e-07
4.09937e-06
4.29523e-06
-4.57262e-07
4.31444e-06
-2.27199e-08
4.30576e-06
1.25768e-07
4.31389e-06
-7.64626e-08
4.30079e-06
-1.16101e-07
4.3051e-06
4.11493e-08
4.31651e-06
1.34635e-07
4.31654e-06
6.08177e-08
4.32578e-06
6.18713e-08
4.3209e-06
-6.4122e-08
4.32077e-06
-8.42948e-08
4.30632e-06
-1.69624e-07
4.29934e-06
-1.32276e-07
4.29163e-06
-5.3082e-08
4.28349e-06
-2.93611e-08
4.28462e-06
5.73378e-08
4.28284e-06
1.12269e-07
4.28399e-06
1.36092e-07
4.2914e-06
1.70801e-07
1.89545e-07
4.29669e-06
4.50115e-06
-4.32642e-07
4.52075e-06
-4.23156e-08
4.51237e-06
1.34149e-07
4.51953e-06
-8.36202e-08
4.50791e-06
-1.04488e-07
4.51073e-06
3.83291e-08
4.52309e-06
1.22278e-07
4.52295e-06
6.09522e-08
4.53149e-06
5.33379e-08
4.52755e-06
-6.01865e-08
4.52621e-06
-8.29482e-08
4.5125e-06
-1.5592e-07
4.50486e-06
-1.24637e-07
4.49741e-06
-4.56337e-08
4.48897e-06
-2.09133e-08
4.48995e-06
5.63593e-08
4.48931e-06
1.12902e-07
4.49004e-06
1.35364e-07
4.49695e-06
1.63885e-07
1.83271e-07
4.50323e-06
4.71704e-06
-4.07563e-07
4.73683e-06
-6.2105e-08
4.72901e-06
1.41961e-07
4.73495e-06
-8.95542e-08
4.72498e-06
-9.45187e-08
4.72633e-06
3.69754e-08
4.73937e-06
1.09237e-07
4.73941e-06
6.0918e-08
4.7469e-06
4.58509e-08
4.74399e-06
-5.72859e-08
4.74149e-06
-8.04428e-08
4.72827e-06
-1.42698e-07
4.72014e-06
-1.16515e-07
4.71297e-06
-3.84545e-08
4.70435e-06
-1.22994e-08
4.70512e-06
5.55947e-08
4.70562e-06
1.12403e-07
4.70623e-06
1.34745e-07
4.71238e-06
1.57739e-07
1.76294e-07
4.71936e-06
4.94336e-06
-3.82129e-07
4.96314e-06
-8.18773e-08
4.95617e-06
1.48925e-07
4.96066e-06
-9.40435e-08
4.95243e-06
-8.62851e-08
4.9524e-06
3.70042e-08
4.96582e-06
9.5817e-08
4.96635e-06
6.03875e-08
4.9725e-06
3.97012e-08
4.97061e-06
-5.53977e-08
4.96709e-06
-7.69216e-08
4.95405e-06
-1.29655e-07
4.94565e-06
-1.08121e-07
4.93888e-06
-3.16792e-08
4.93019e-06
-3.61595e-09
4.93062e-06
5.51698e-08
4.93218e-06
1.10841e-07
4.93299e-06
1.33936e-07
4.9383e-06
1.52434e-07
1.69024e-07
4.94557e-06
5.18064e-06
-3.56453e-07
5.20017e-06
-1.01404e-07
5.19432e-06
1.54776e-07
5.1972e-06
-9.69306e-08
5.19072e-06
-7.98034e-08
5.18944e-06
3.82863e-08
5.2029e-06
8.23613e-08
5.20422e-06
5.90584e-08
5.20883e-06
3.50929e-08
5.20779e-06
-5.43569e-08
5.20356e-06
-7.26861e-08
5.19032e-06
-1.1642e-07
5.1818e-06
-9.95978e-08
5.17569e-06
-2.55725e-08
5.1671e-06
4.98061e-09
5.16699e-06
5.52732e-08
5.16946e-06
1.08374e-07
5.17072e-06
1.32671e-07
5.17527e-06
1.47885e-07
1.61841e-07
5.18245e-06
5.4294e-06
-3.30662e-07
5.44844e-06
-1.20444e-07
5.44393e-06
1.5928e-07
5.44515e-06
-9.81504e-08
5.44037e-06
-7.50176e-08
5.43799e-06
4.06618e-08
5.45114e-06
6.92169e-08
5.45349e-06
5.67045e-08
5.45646e-06
3.21274e-08
5.45599e-06
-5.38907e-08
5.45149e-06
-6.81825e-08
5.43775e-06
-1.02688e-07
5.42907e-06
-9.09158e-08
5.42389e-06
-2.03949e-08
5.41564e-06
1.32363e-08
5.41481e-06
5.60982e-08
5.41794e-06
1.05243e-07
5.41987e-06
1.30743e-07
5.42383e-06
1.43927e-07
1.54995e-07
5.43068e-06
5.69019e-06
-3.04897e-07
5.70849e-06
-1.38745e-07
5.70551e-06
1.62261e-07
5.70507e-06
-9.77039e-08
5.70191e-06
-7.18569e-08
5.69861e-06
4.39622e-08
5.71111e-06
5.67102e-08
5.71463e-06
5.31838e-08
5.71593e-06
3.08262e-08
5.71564e-06
-5.3596e-08
5.71139e-06
-6.39359e-08
5.69718e-06
-8.84726e-08
5.6881e-06
-8.18334e-08
5.68396e-06
-1.62626e-08
5.67636e-06
2.08427e-08
5.67473e-06
5.77301e-08
5.67818e-06
1.01787e-07
5.6809e-06
1.2802e-07
5.68448e-06
1.40347e-07
1.4861e-07
5.69087e-06
5.96361e-06
-2.79311e-07
5.98092e-06
-1.56057e-07
5.97957e-06
1.63605e-07
5.97749e-06
-9.56243e-08
5.9759e-06
-7.02583e-08
5.97186e-06
4.7994e-08
5.98339e-06
4.51811e-08
5.98818e-06
4.83931e-08
5.98786e-06
3.11486e-08
5.98724e-06
-5.29773e-08
5.9837e-06
-6.03938e-08
5.96936e-06
-7.41329e-08
5.95955e-06
-7.20268e-08
5.95636e-06
-1.30671e-08
5.94978e-06
2.74249e-08
5.9474e-06
6.01056e-08
5.95077e-06
9.84156e-08
5.95431e-06
1.2448e-07
5.95778e-06
1.36885e-07
1.42754e-07
5.96363e-06
6.25025e-06
-2.54069e-07
6.26631e-06
-1.72116e-07
6.26669e-06
1.63216e-07
6.26298e-06
-9.19105e-08
6.26292e-06
-7.0196e-08
6.25838e-06
5.25337e-08
6.26855e-06
3.50073e-08
6.27467e-06
4.2279e-08
6.27292e-06
3.28974e-08
6.27133e-06
-5.13899e-08
6.2688e-06
-5.78599e-08
6.25494e-06
-6.02735e-08
6.24421e-06
-6.12946e-08
6.2416e-06
-1.04629e-08
6.23638e-06
3.26443e-08
6.23351e-06
6.29725e-08
6.23641e-06
9.5519e-08
6.24063e-06
1.20258e-07
6.24426e-06
1.33258e-07
1.37446e-07
6.24957e-06
6.55075e-06
-2.29351e-07
6.56528e-06
-1.86642e-07
6.56752e-06
1.6097e-07
6.56211e-06
-8.64986e-08
6.56362e-06
-7.17053e-08
6.55881e-06
5.73432e-08
6.5672e-06
2.66192e-08
6.57463e-06
3.48455e-08
6.57182e-06
3.57101e-08
6.56861e-06
-4.81827e-08
6.56714e-06
-5.63858e-08
6.55455e-06
-4.76864e-08
6.54286e-06
-4.96044e-08
6.54033e-06
-7.92688e-09
6.53664e-06
3.63304e-08
6.53369e-06
6.59261e-08
6.53585e-06
9.33521e-08
6.54046e-06
1.15654e-07
6.54449e-06
1.29228e-07
1.32615e-07
6.54932e-06
6.86578e-06
-2.05345e-07
6.87848e-06
-1.99334e-07
6.88274e-06
1.56702e-07
6.87555e-06
-7.92994e-08
6.87865e-06
-7.48052e-08
6.8739e-06
6.20894e-08
6.87997e-06
2.05531e-08
6.88866e-06
2.61557e-08
6.88538e-06
3.89826e-08
6.88008e-06
-4.28766e-08
6.8794e-06
-5.57059e-08
6.86872e-06
-3.70123e-08
6.85635e-06
-3.72314e-08
6.85328e-06
-4.85558e-09
6.85107e-06
3.85422e-08
6.84849e-06
6.85019e-08
6.84988e-06
9.19583e-08
6.85448e-06
1.1106e-07
6.85902e-06
1.24685e-07
1.28098e-07
6.86354e-06
7.19604e-06
-1.82254e-07
7.20656e-06
-2.09844e-07
7.21307e-06
1.50189e-07
7.204e-06
-7.02321e-08
7.20864e-06
-7.94422e-08
7.20442e-06
6.63073e-08
7.20761e-06
1.7361e-08
7.21733e-06
1.64427e-08
7.21438e-06
4.1925e-08
7.20679e-06
-3.52836e-08
7.20623e-06
-5.51485e-08
7.19796e-06
-2.87361e-08
7.1854e-06
-2.46773e-08
7.18133e-06
-7.86093e-10
7.18025e-06
3.96226e-08
7.17848e-06
7.02701e-08
7.17927e-06
9.11686e-08
7.18348e-06
1.06852e-07
7.18847e-06
1.19699e-07
1.23669e-07
7.1929e-06
7.54225e-06
-1.60283e-07
7.5502e-06
-2.17794e-07
7.5592e-06
1.41196e-07
7.54826e-06
-5.92949e-08
7.55413e-06
-8.53148e-08
7.55111e-06
6.93274e-08
7.5511e-06
1.73764e-08
7.56121e-06
6.32758e-09
7.5595e-06
4.36336e-08
7.54982e-06
-2.55972e-08
7.54844e-06
-5.3776e-08
7.54269e-06
-2.29824e-08
7.53067e-06
-1.26606e-08
7.52543e-06
4.45749e-09
7.52495e-06
4.01061e-08
7.52422e-06
7.09959e-08
7.52474e-06
9.06495e-08
7.52833e-06
1.03265e-07
7.53351e-06
1.14512e-07
1.19125e-07
7.53806e-06
7.90517e-06
-1.3964e-07
7.9102e-06
-2.22823e-07
7.92184e-06
1.29558e-07
7.90915e-06
-4.6612e-08
7.91556e-06
-9.17269e-08
7.91463e-06
7.02579e-08
7.91143e-06
2.05818e-08
7.92101e-06
-3.25591e-09
7.92126e-06
4.3389e-08
7.9101e-06
-1.44363e-08
7.90705e-06
-5.07266e-08
7.90348e-06
-1.94125e-08
7.89275e-06
-1.93905e-09
7.88646e-06
1.07502e-08
7.88602e-06
4.05525e-08
7.8863e-06
7.07076e-08
7.88696e-06
8.99984e-08
7.8899e-06
1.00323e-07
7.89496e-06
1.09447e-07
1.14383e-07
7.8997e-06
8.28556e-06
-1.20516e-07
8.28741e-06
-2.24674e-07
8.30168e-06
1.15284e-07
8.28751e-06
-3.24449e-08
8.29355e-06
-9.77596e-08
8.29558e-06
6.82293e-08
8.2896e-06
2.65541e-08
8.29751e-06
-1.11636e-08
8.30005e-06
4.08454e-08
8.28837e-06
-2.75618e-09
8.28315e-06
-4.5506e-08
8.28106e-06
-1.73223e-08
8.2722e-06
6.92373e-09
8.26523e-06
1.77195e-08
8.2644e-06
4.13797e-08
8.26547e-06
6.9639e-08
8.26657e-06
8.89037e-08
8.26902e-06
9.78677e-08
8.27371e-06
1.04759e-07
1.09516e-07
8.27858e-06
8.68423e-06
-1.0308e-07
8.68278e-06
-2.23223e-07
8.69944e-06
9.86234e-08
8.68434e-06
-1.7347e-08
8.68894e-06
-1.02357e-07
8.69445e-06
6.27133e-08
8.68661e-06
3.43984e-08
8.69169e-06
-1.62424e-08
8.6964e-06
3.61355e-08
8.6853e-06
8.34317e-09
8.6779e-06
-3.8109e-08
8.67639e-06
-1.58148e-08
8.66961e-06
1.3708e-08
8.66251e-06
2.48165e-08
8.66106e-06
4.28261e-08
8.6626e-06
6.81039e-08
8.66428e-06
8.7221e-08
8.66649e-06
9.56616e-08
8.67069e-06
1.00553e-07
1.04681e-07
8.67553e-06
9.102e-06
-8.74611e-08
9.09725e-06
-2.18469e-07
9.11582e-06
8.00465e-08
9.10081e-06
-2.33593e-09
9.10271e-06
-1.0425e-07
9.11179e-06
5.36255e-08
9.10334e-06
4.28539e-08
9.10477e-06
-1.76766e-08
9.11091e-06
2.99948e-08
9.10145e-06
1.78036e-08
9.0923e-06
-2.89533e-08
9.0905e-06
-1.40227e-08
9.08574e-06
1.84687e-08
9.07906e-06
3.15045e-08
9.07695e-06
4.49343e-08
9.07862e-06
6.6432e-08
9.08089e-06
8.49484e-08
9.08308e-06
9.34712e-08
9.08682e-06
9.68202e-08
9.99838e-08
9.09151e-06
9.53974e-06
-7.37432e-08
9.53186e-06
-2.10588e-07
9.55163e-06
6.02784e-08
9.53789e-06
1.14028e-08
9.53595e-06
-1.02315e-07
9.54808e-06
4.15029e-08
9.54058e-06
5.03562e-08
9.53814e-06
-1.52384e-08
9.54457e-06
2.35601e-08
9.53744e-06
2.49372e-08
9.52723e-06
-1.87424e-08
9.52457e-06
-1.13685e-08
9.52146e-06
2.15787e-08
9.51564e-06
3.73261e-08
9.51301e-06
4.75706e-08
9.51451e-06
6.49309e-08
9.51729e-06
8.21695e-08
9.51966e-06
9.1098e-08
9.52296e-06
9.3521e-08
9.54566e-08
9.52748e-06
9.99835e-06
-6.19553e-08
9.98768e-06
-1.9992e-07
1.00077e-05
4.02179e-08
9.99636e-06
2.27813e-08
9.99008e-06
-9.60343e-08
1.0004e-05
2.75664e-08
9.99899e-06
5.53793e-08
9.99325e-06
-9.48987e-09
9.99868e-06
1.81232e-08
9.99394e-06
2.96779e-08
9.98349e-06
-8.29409e-09
9.97978e-06
-7.65751e-09
9.97777e-06
2.3592e-08
9.97311e-06
4.19895e-08
9.97019e-06
5.04855e-08
9.97129e-06
6.3828e-08
9.97439e-06
7.90736e-08
9.97713e-06
8.83576e-08
9.98007e-06
9.05817e-08
9.11481e-08
9.98438e-06
1.04788e-05
-5.20714e-08
1.04657e-05
-1.86908e-07
1.04852e-05
2.07427e-08
1.0477e-05
3.10474e-08
1.04667e-05
-8.58091e-08
1.04806e-05
1.36942e-08
1.04791e-05
5.68615e-08
1.04713e-05
-1.69537e-09
1.04747e-05
1.47042e-08
1.04719e-05
3.25626e-08
1.04619e-05
1.64958e-09
1.04572e-05
-2.95425e-09
1.04558e-05
2.4994e-08
1.04523e-05
4.54598e-08
1.04495e-05
5.33682e-08
1.04501e-05
6.31983e-08
1.04532e-05
7.59626e-08
1.04564e-05
8.51284e-08
1.04592e-05
8.78326e-08
8.7197e-08
1.04631e-05
1.0982e-05
-4.40056e-08
1.09671e-05
-1.72042e-07
1.09852e-05
2.59987e-09
1.09805e-05
3.57997e-08
1.09674e-05
-7.27294e-08
1.09791e-05
1.95898e-09
1.09815e-05
5.45278e-08
1.09733e-05
6.49036e-09
1.09742e-05
1.38078e-08
1.09723e-05
3.44001e-08
1.09633e-05
1.0659e-08
1.09579e-05
2.46214e-09
1.09567e-05
2.61687e-08
1.09544e-05
4.78233e-08
1.09518e-05
5.59623e-08
1.0952e-05
6.2975e-08
1.09548e-05
7.31276e-08
1.09585e-05
8.14849e-08
1.09614e-05
8.49608e-08
8.37448e-08
1.09648e-05
1.1509e-05
-3.761e-08
1.14928e-05
-1.55899e-07
1.15089e-05
-1.35131e-08
1.15078e-05
3.69322e-08
1.14932e-05
-5.80997e-08
1.15012e-05
-6.08932e-09
1.15068e-05
4.89124e-08
1.14998e-05
1.34953e-08
1.14983e-05
1.53135e-08
1.14967e-05
3.60161e-08
1.14887e-05
1.867e-08
1.14829e-05
8.24662e-09
1.14817e-05
2.73454e-08
1.14803e-05
4.92414e-08
1.14782e-05
5.80928e-08
1.14781e-05
6.30394e-08
1.14806e-05
7.0687e-08
1.14843e-05
7.77362e-08
1.14876e-05
8.16624e-08
8.07097e-08
1.14907e-05
1.20609e-05
-3.26698e-08
1.20441e-05
-1.39134e-07
1.20575e-05
-2.69414e-08
1.20598e-05
3.46902e-08
1.20451e-05
-4.3365e-08
1.20488e-05
-9.84983e-09
1.20562e-05
4.15644e-08
1.20516e-05
1.80844e-08
1.20485e-05
1.84149e-08
1.20464e-05
3.81344e-08
1.20391e-05
2.58709e-08
1.20333e-05
1.41289e-08
1.2032e-05
2.86309e-08
1.20314e-05
4.98468e-08
1.20298e-05
5.96791e-08
1.20296e-05
6.32341e-08
1.20317e-05
6.8626e-08
1.20352e-05
7.42198e-08
1.20389e-05
7.79384e-08
7.77189e-08
1.20419e-05
1.26388e-05
-2.89145e-08
1.26221e-05
-1.22443e-07
1.26323e-05
-3.71278e-08
1.26374e-05
2.96318e-08
1.26238e-05
-2.98093e-08
1.26236e-05
-9.57188e-09
1.26307e-05
3.44179e-08
1.26289e-05
1.98412e-08
1.26256e-05
2.17165e-08
1.26227e-05
4.10781e-08
1.2616e-05
3.25816e-08
1.26101e-05
2.00209e-08
1.26086e-05
3.00924e-08
1.26087e-05
4.97601e-08
1.26077e-05
6.06688e-08
1.26075e-05
6.34358e-08
1.26093e-05
6.68626e-08
1.26125e-05
7.10475e-08
1.26163e-05
7.41309e-08
7.43942e-08
1.26196e-05
1.32441e-05
-2.60368e-08
1.32282e-05
-1.0659e-07
1.32347e-05
-4.3611e-08
1.32418e-05
2.25569e-08
1.32303e-05
-1.83725e-08
1.3227e-05
-6.2935e-09
1.32323e-05
2.92021e-08
1.32327e-05
1.93992e-08
1.32305e-05
2.38932e-08
1.32272e-05
4.44183e-08
1.32206e-05
3.91425e-08
1.32146e-05
2.60058e-08
1.3213e-05
3.17235e-08
1.32136e-05
4.92032e-08
1.32133e-05
6.0917e-08
1.32131e-05
6.36047e-08
1.32147e-05
6.53159e-08
1.32176e-05
6.8151e-08
1.32211e-05
7.05908e-08
7.07256e-08
1.32248e-05
1.38779e-05
-2.37264e-08
1.38634e-05
-9.21688e-08
1.38662e-05
-4.63931e-08
1.38742e-05
1.45943e-08
1.38654e-05
-9.58743e-09
1.38604e-05
-1.25426e-09
1.38629e-05
2.67048e-08
1.3864e-05
1.82425e-08
1.38638e-05
2.41306e-08
1.3861e-05
4.71546e-08
1.38545e-05
4.57026e-08
1.38483e-05
3.21589e-08
1.38464e-05
3.36877e-08
1.38472e-05
4.83342e-08
1.38478e-05
6.03758e-08
1.38478e-05
6.3588e-08
1.38491e-05
6.40112e-08
1.38518e-05
6.54038e-08
1.3855e-05
6.73782e-08
6.70585e-08
1.38587e-05
1.45417e-05
-2.17211e-08
1.45289e-05
-7.94564e-08
1.45285e-05
-4.59891e-08
1.4536e-05
7.09967e-09
1.45302e-05
-3.70106e-09
1.45245e-05
4.37494e-09
1.45245e-05
2.67467e-08
1.45248e-05
1.79678e-08
1.45263e-05
2.26087e-08
1.45252e-05
4.82544e-08
1.4519e-05
5.18764e-08
1.45127e-05
3.85056e-08
1.45101e-05
3.61957e-08
1.45111e-05
4.73851e-08
1.45124e-05
5.90978e-08
1.45128e-05
6.31479e-08
1.45138e-05
6.29913e-08
1.45164e-05
6.28379e-08
1.45195e-05
6.42866e-08
6.37233e-08
1.45228e-05
1.5237e-05
-1.98124e-08
1.5226e-05
-6.85306e-08
1.52231e-05
-4.30498e-08
1.52291e-05
1.08693e-09
1.52259e-05
-4.30683e-10
1.52205e-05
9.68133e-09
1.52187e-05
2.86322e-08
1.52173e-05
1.93272e-08
1.52194e-05
2.05465e-08
1.52204e-05
4.71851e-08
1.52156e-05
5.67162e-08
1.5209e-05
4.50751e-08
1.5206e-05
3.92488e-08
1.52067e-05
4.66615e-08
1.52085e-05
5.73391e-08
1.52096e-05
6.19931e-08
1.52105e-05
6.20847e-08
1.52127e-05
6.06447e-08
1.52158e-05
6.11865e-08
6.07166e-08
1.52188e-05
1.59654e-05
-1.78693e-08
1.59561e-05
-5.92407e-08
1.59514e-05
-3.83529e-08
1.59553e-05
-2.79511e-09
1.5954e-05
8.9749e-10
1.59496e-05
1.39909e-08
1.59468e-05
3.14292e-08
1.59438e-05
2.24178e-08
1.59449e-05
1.9436e-08
1.59479e-05
4.4109e-08
1.59453e-05
5.93554e-08
1.5939e-05
5.13484e-08
1.59354e-05
4.29126e-08
1.59357e-05
4.63745e-08
1.59376e-05
5.53987e-08
1.59394e-05
6.02061e-08
1.59406e-05
6.08716e-08
1.59423e-05
5.89113e-08
1.59453e-05
5.82018e-08
5.78081e-08
1.59482e-05
1.67286e-05
-1.58561e-08
1.67206e-05
-5.12617e-08
1.6715e-05
-3.27418e-08
1.67164e-05
-4.19883e-09
1.67161e-05
1.20049e-09
1.67132e-05
1.68505e-08
1.67103e-05
3.43905e-08
1.6706e-05
2.66977e-08
1.67053e-05
2.01302e-08
1.67093e-05
4.01211e-08
1.67091e-05
5.9506e-08
1.67041e-05
5.63771e-08
1.66999e-05
4.70978e-08
1.66996e-05
4.6713e-08
1.67016e-05
5.34236e-08
1.67037e-05
5.81053e-08
1.67054e-05
5.90982e-08
1.6707e-05
5.73626e-08
1.67096e-05
5.5541e-08
5.48652e-08
1.67126e-05
1.75283e-05
-1.38066e-08
1.75214e-05
-4.43447e-08
1.75155e-05
-2.68749e-08
1.75146e-05
-3.28313e-09
1.75142e-05
1.59773e-09
1.75129e-05
1.82123e-08
1.75103e-05
3.69189e-08
1.75055e-05
3.15074e-08
1.75031e-05
2.25872e-08
1.75065e-05
3.67049e-08
1.75086e-05
5.7397e-08
1.75055e-05
5.94581e-08
1.75013e-05
5.13034e-08
1.75003e-05
4.77448e-08
1.7502e-05
5.16839e-08
1.75043e-05
5.58159e-08
1.75065e-05
5.69274e-08
1.75082e-05
5.56135e-08
1.75105e-05
5.32362e-08
5.19248e-08
1.75135e-05
1.83663e-05
-1.17952e-08
1.83601e-05
-3.81148e-08
1.83545e-05
-2.13178e-08
1.83518e-05
-5.80093e-10
1.83505e-05
2.89803e-09
1.83502e-05
1.85717e-08
1.83486e-05
3.84648e-08
1.83439e-05
3.62826e-08
1.83401e-05
2.63436e-08
1.8342e-05
3.48316e-08
1.83454e-05
5.39687e-08
1.83445e-05
6.03831e-08
1.8341e-05
5.47754e-08
1.83394e-05
4.93114e-08
1.83406e-05
5.04838e-08
1.83431e-05
5.33609e-08
1.83455e-05
5.45756e-08
1.83475e-05
5.35191e-08
1.83497e-05
5.11198e-08
4.90965e-08
1.83525e-05
1.92445e-05
-9.91878e-09
1.92386e-05
-3.21546e-08
1.92336e-05
-1.6398e-08