/*--------------------------------*- C++ -*----------------------------------*\
| =========                 |                                                 |
| \\      /  F ield         | OpenFOAM: The Open Source CFD Toolbox           |
|  \\    /   O peration     | Version:  2106                                  |
|   \\  /    A nd           | Website:  www.openfoam.com                      |
|    \\/     M anipulation  |                                                 |
\*---------------------------------------------------------------------------*/
FoamFile
{
    version     2.0;
    format      ascii;
    arch        "LSB;label=32;scalar=64";
    class       volVectorField;
    location    "0.14";
    object      U;
}
// * * * * * * * * * * * * * * * * * * * * * * * * * * * * * * * * * * * * * //

dimensions      [0 1 -1 0 0 0 0];

internalField   nonuniform List<vector> 
9600
(
(0.874395 0.00291903 0)
(1.12631 -0.0113387 0)
(0.8923 -0.0090589 0)
(1.13236 0.00320031 0)
(0.885304 0.0116866 0)
(1.11798 0.00375552 0)
(0.891626 -0.00621249 0)
(1.11918 -0.00706017 0)
(0.895162 -0.000740152 0)
(1.11609 0.00317092 0)
(0.879006 0.00685028 0)
(1.09675 0.00568709 0)
(0.914763 0.00209628 0)
(1.09373 -0.00946711 0)
(0.864888 -0.00240862 0)
(1.12356 -0.00942468 0)
(0.851822 -0.00618271 0)
(1.12558 -0.000342203 0)
(0.851619 0.000212955 0)
(1.1106 0.00332038 0)
(0.885638 0.00286189 0)
(1.10925 -0.0113074 0)
(0.898315 -0.00930695 0)
(1.12306 0.0033764 0)
(0.89766 0.0116846 0)
(1.10201 0.00384548 0)
(0.911097 -0.00642684 0)
(1.10169 -0.00689145 0)
(0.91336 -0.000921282 0)
(1.09583 0.00355581 0)
(0.906354 0.0069809 0)
(1.06756 0.00531941 0)
(0.949709 0.00186778 0)
(1.05746 -0.00818145 0)
(0.915675 -0.00336849 0)
(1.06649 -0.00910587 0)
(0.923982 -0.00629409 0)
(1.04491 -0.00050886 0)
(0.95467 0.00193827 0)
(0.992804 0.0025182 0)
(0.905323 0.00284754 0)
(1.08508 -0.0112606 0)
(0.912413 -0.00957239 0)
(1.10265 0.00353171 0)
(0.92209 0.0117386 0)
(1.07738 0.0038399 0)
(0.940172 -0.00655947 0)
(1.07321 -0.00677814 0)
(0.943454 -0.000957428 0)
(1.06334 0.00379841 0)
(0.945315 0.0072142 0)
(1.03374 0.00477911 0)
(0.983602 0.00199162 0)
(1.02603 -0.00764589 0)
(0.962012 -0.00353723 0)
(1.02308 -0.00928873 0)
(0.974857 -0.00569613 0)
(1.00283 -0.00142483 0)
(0.98961 0.00285139 0)
(0.98015 0.00321581 0)
(0.929592 0.00288135 0)
(1.05797 -0.0112101 0)
(0.931966 -0.00980833 0)
(1.07517 0.0035339 0)
(0.951555 0.0118624 0)
(1.05275 0.00375021 0)
(0.968306 -0.0065697 0)
(1.04387 -0.00675122 0)
(0.971631 -0.00086761 0)
(1.03414 0.0038067 0)
(0.976287 0.00750942 0)
(1.01404 0.00434202 0)
(1.00127 0.0020443 0)
(1.01174 -0.00733083 0)
(0.985285 -0.00333223 0)
(1.00542 -0.0095649 0)
(0.991793 -0.00525734 0)
(0.995064 -0.00165982 0)
(0.994174 0.00318929 0)
(0.988056 0.00420079 0)
(0.954045 0.00294811 0)
(1.03312 -0.011157 0)
(0.9517 -0.0100111 0)
(1.0476 0.00339718 0)
(0.978408 0.0119867 0)
(1.03444 0.00365347 0)
(0.988252 -0.00648328 0)
(1.02157 -0.00675601 0)
(0.989572 -0.000766169 0)
(1.01623 0.00374486 0)
(0.994133 0.00769424 0)
(1.00813 0.00407056 0)
(1.00773 0.00205377 0)
(1.00724 -0.00705085 0)
(0.994395 -0.00313162 0)
(1.00022 -0.00967438 0)
(0.994274 -0.005009 0)
(0.99453 -0.00173028 0)
(0.994724 0.00345203 0)
(0.991065 0.00502164 0)
(0.974806 0.00302689 0)
(1.01469 -0.0110893 0)
(0.967279 -0.0101759 0)
(1.02557 0.00316974 0)
(0.997989 0.0120425 0)
(1.02394 0.00361415 0)
(0.998975 -0.00632426 0)
(1.00803 -0.0067495 0)
(0.997529 -0.000713742 0)
(1.00796 0.00366067 0)
(1.00266 0.00772356 0)
(1.00835 0.00393748 0)
(1.00994 0.00210236 0)
(1.00557 -0.0068248 0)
(0.997693 -0.00294223 0)
(0.998764 -0.00959591 0)
(0.993291 -0.00488034 0)
(0.993368 -0.00173904 0)
(0.994768 0.0035927 0)
(0.991751 0.00562614 0)
(0.989709 0.00309486 0)
(1.00411 -0.0109927 0)
(0.97718 -0.010299 0)
(1.01073 0.00288651 0)
(1.00916 0.0120037 0)
(1.0189 0.00365086 0)
(1.00322 -0.00610809 0)
(1.00088 -0.00671983 0)
(0.999447 -0.000719295 0)
(1.00442 0.00353625 0)
(1.00602 0.00765255 0)
(1.00939 0.00387405 0)
(1.01061 0.00219902 0)
(1.00449 -0.00660656 0)
(0.998655 -0.00274087 0)
(0.998139 -0.00943238 0)
(0.992073 -0.00475492 0)
(0.991662 -0.00168707 0)
(0.994041 0.00351648 0)
(0.991878 0.00612716 0)
(0.998642 0.00313625 0)
(1.00011 -0.0108626 0)
(0.982301 -0.0103744 0)
(1.00153 0.00257859 0)
(1.01313 0.011882 0)
(1.01611 0.00374049 0)
(1.00412 -0.00585224 0)
(0.997291 -0.006669 0)
(0.998691 -0.000760996 0)
(1.00213 0.00337281 0)
(1.00634 0.00752506 0)
(1.00929 0.0038318 0)
(1.01026 0.00233089 0)
(1.00356 -0.00636883 0)
(0.998673 -0.00256213 0)
(0.99761 -0.00920003 0)
(0.991201 -0.0046214 0)
(0.990099 -0.00158509 0)
(0.992766 0.00329792 0)
(0.991506 0.0066013 0)
(1.00295 0.0031433 0)
(1.00011 -0.0107067 0)
(0.984487 -0.0103908 0)
(0.995524 0.00227825 0)
(1.01209 0.0117026 0)
(1.01363 0.00384128 0)
(1.00368 -0.00557998 0)
(0.995493 -0.00659705 0)
(0.997056 -0.000807807 0)
(0.999818 0.00318899 0)
(1.00476 0.00736506 0)
(1.00789 0.00378864 0)
(1.00911 0.00246412 0)
(1.00273 -0.0061238 0)
(0.998353 -0.00241372 0)
(0.997149 -0.00889271 0)
(0.990639 -0.00450849 0)
(0.988934 -0.00140786 0)
(0.991363 0.00303571 0)
(0.990654 0.00703654 0)
(1.00444 0.00311909 0)
(1.00169 -0.0105376 0)
(0.985311 -0.0103401 0)
(0.991132 0.00201104 0)
(1.00841 0.0114854 0)
(1.01098 0.00391534 0)
(1.00287 -0.00531305 0)
(0.994649 -0.00650396 0)
(0.99536 -0.000836917 0)
(0.997453 0.00300582 0)
(1.00225 0.00718818 0)
(1.00579 0.00372954 0)
(1.00758 0.00256438 0)
(1.00203 -0.00587674 0)
(0.997944 -0.00229718 0)
(0.996834 -0.00852292 0)
(0.990318 -0.00442386 0)
(0.988169 -0.00114437 0)
(0.990173 0.00277204 0)
(0.989583 0.00738816 0)
(1.00459 0.00307221 0)
(1.00336 -0.0103645 0)
(0.985664 -0.0102239 0)
(0.98783 0.00179021 0)
(1.00411 0.0112423 0)
(1.00846 0.00394285 0)
(1.00207 -0.00506526 0)
(0.994333 -0.00639163 0)
(0.993984 -0.000837928 0)
(0.995414 0.00283753 0)
(0.99973 0.00700176 0)
(1.00368 0.00364668 0)
(1.00608 0.00261681 0)
(1.0015 -0.00562825 0)
(0.99756 -0.00221787 0)
(0.996656 -0.00810725 0)
(0.990211 -0.00435273 0)
(0.987736 -0.000796285 0)
(0.989383 0.00253608 0)
(0.988642 0.00763692 0)
(1.00432 0.00301161 0)
(1.00452 -0.0101918 0)
(0.985903 -0.0100539 0)
(0.985561 0.00161541 0)
(1.00051 0.01098 0)
(1.00642 0.00392164 0)
(1.00142 -0.00484008 0)
(0.994285 -0.00626346 0)
(0.993074 -0.000811921 0)
(0.993971 0.00268763 0)
(0.997771 0.00680763 0)
(1.00204 0.00354475 0)
(1.00487 0.00261725 0)
(1.00112 -0.00537269 0)
(0.997257 -0.00217811 0)
(0.996553 -0.00764435 0)
(0.990283 -0.00430287 0)
(0.987564 -0.000406273 0)
(0.989017 0.00235447 0)
(0.988074 0.00778153 0)
(1.00401 0.00294441 0)
(1.00515 -0.0100209 0)
(0.986123 -0.00984439 0)
(0.984249 0.00147718 0)
(0.998079 0.0107032 0)
(1.005 0.00386083 0)
(1.00095 -0.00463338 0)
(0.99435 -0.00612257 0)
(0.992603 -0.00076712 0)
(0.993147 0.0025538 0)
(0.996533 0.00660513 0)
(1.00097 0.00343345 0)
(1.00403 0.00257069 0)
(1.00084 -0.00510102 0)
(0.997049 -0.00217231 0)
(0.996477 -0.00714158 0)
(0.990476 -0.00426696 0)
(0.987587 6.62456e-06 0)
(0.988986 0.00225136 0)
(0.98793 0.00782059 0)
(1.00377 0.00287498 0)
(1.0054 -0.00985151 0)
(0.986337 -0.00960809 0)
(0.983677 0.00136321 0)
(0.996723 0.0104149 0)
(1.00412 0.00377313 0)
(1.00062 -0.00443833 0)
(0.994449 -0.00597178 0)
(0.992451 -0.000714416 0)
(0.992796 0.00243277 0)
(0.995884 0.00639181 0)
(1.00037 0.00332365 0)
(1.00346 0.0024849 0)
(1.00064 -0.004807 0)
(0.996917 -0.00219294 0)
(0.996406 -0.00661731 0)
(0.99074 -0.00421621 0)
(0.987744 0.000421261 0)
(0.989161 0.00224525 0)
(0.988117 0.00775627 0)
(1.0036 0.00280568 0)
(1.00544 -0.00968323 0)
(0.986547 -0.00935435 0)
(0.983577 0.00126316 0)
(0.996094 0.0101175 0)
(1.00358 0.00366929 0)
(1.00038 -0.00424921 0)
(0.994553 -0.00581309 0)
(0.992489 -0.000658893 0)
(0.992731 0.00232189 0)
(0.995599 0.00616608 0)
(1.00005 0.00322366 0)
(1.00307 0.00236829 0)
(1.00046 -0.00449084 0)
(0.996831 -0.00223482 0)
(0.996339 -0.00607534 0)
(0.991035 -0.00415161 0)
(0.987985 0.000768328 0)
(0.989437 0.00232851 0)
(0.988503 0.00760098 0)
(1.00347 0.00273773 0)
(1.00538 -0.00951624 0)
(0.986755 -0.00908854 0)
(0.98373 0.00117007 0)
(0.995864 0.00981288 0)
(1.00323 0.00355629 0)
(1.0002 -0.00406266 0)
(0.994658 -0.00564747 0)
(0.99262 -0.000605138 0)
(0.992809 0.00222063 0)
(0.995499 0.00592504 0)
(0.999863 0.00313953 0)
(1.00278 0.00222823 0)
(1.0003 -0.004156 0)
(0.99677 -0.00228692 0)
(0.996273 -0.00553224 0)
(0.991343 -0.0040561 0)
(0.988277 0.00104794 0)
(0.989753 0.00248831 0)
(0.988982 0.00738247 0)
(1.00334 0.00267176 0)
(1.00528 -0.00935118 0)
(0.986965 -0.00881312 0)
(0.984 0.00108041 0)
(0.995816 0.00950214 0)
(1.00296 0.00343835 0)
(1.00004 -0.00387783 0)
(0.994763 -0.00547383 0)
(0.992793 -0.000560474 0)
(0.992947 0.00213134 0)
(0.995476 0.00566661 0)
(0.999733 0.00307317 0)
(1.00252 0.00206732 0)
(1.00015 -0.00380446 0)
(0.996723 -0.0023341 0)
(0.996213 -0.0050104 0)
(0.991653 -0.00390206 0)
(0.988603 0.0012753 0)
(0.99008 0.0026966 0)
(0.989497 0.00712613 0)
(1.00323 0.00260814 0)
(1.00516 -0.00918829 0)
(0.987179 -0.00852964 0)
(0.98432 0.000993398 0)
(0.995843 0.00918524 0)
(1.00272 0.00331789 0)
(0.999887 -0.00369559 0)
(0.994869 -0.00529106 0)
(0.992984 -0.000525795 0)
(0.993106 0.00205422 0)
(0.995482 0.00539276 0)
(0.99962 0.00302054 0)
(1.00227 0.0018943 0)
(0.99999 -0.00344644 0)
(0.996683 -0.00236593 0)
(0.99616 -0.00451813 0)
(0.991965 -0.00368814 0)
(0.988952 0.00145491 0)
(0.990403 0.00291651 0)
(0.990021 0.00685518 0)
(1.00311 0.00254713 0)
(1.00504 -0.00902787 0)
(0.987398 -0.00823839 0)
(0.984661 0.000908152 0)
(0.995898 0.00886322 0)
(1.00249 0.0031958 0)
(0.999737 -0.00351664 0)
(0.994977 -0.00509934 0)
(0.993184 -0.000501511 0)
(0.993272 0.00199023 0)
(0.995501 0.0051054 0)
(0.999509 0.00297805 0)
(1.00204 0.00171585 0)
(0.999831 -0.00309615 0)
(0.996648 -0.0023677 0)
(0.996116 -0.00406951 0)
(0.992275 -0.00342352 0)
(0.989318 0.00159373 0)
(0.99072 0.003128 0)
(0.990542 0.00658961 0)
(1.003 0.00248917 0)
(1.00491 -0.00887082 0)
(0.987622 -0.00793907 0)
(0.985013 0.000824085 0)
(0.995966 0.00853647 0)
(1.00227 0.00307331 0)
(0.999588 -0.00334229 0)
(0.995084 -0.0048974 0)
(0.99339 -0.00048981 0)
(0.99344 0.0019409 0)
(0.995526 0.00480467 0)
(0.999397 0.00294734 0)
(1.00181 0.00153619 0)
(0.999673 -0.00276394 0)
(0.996615 -0.002324 0)
(0.996084 -0.0036639 0)
(0.992584 -0.00312236 0)
(0.989697 0.00170923 0)
(0.991028 0.00332532 0)
(0.991055 0.00633849 0)
(1.00288 0.00243437 0)
(1.00478 -0.00871696 0)
(0.987851 -0.00763302 0)
(0.985372 0.000742617 0)
(0.996042 0.00820406 0)
(1.00204 0.00295247 0)
(0.999439 -0.00317544 0)
(0.995193 -0.00468358 0)
(0.9936 -0.000492753 0)
(0.993608 0.0019046 0)
(0.995556 0.00449994 0)
(0.999284 0.00291384 0)
(1.00159 0.00137057 0)
(0.999517 -0.00245889 0)
(0.996584 -0.00223493 0)
(0.996062 -0.00328608 0)
(0.992892 -0.00280472 0)
(0.990088 0.0018132 0)
(0.991329 0.00350765 0)
(0.991553 0.00610903 0)
(1.00276 0.00238274 0)
(1.00465 -0.00856624 0)
(0.988084 -0.00732068 0)
(0.985736 0.000663835 0)
(0.996125 0.00786621 0)
(1.00182 0.00283459 0)
(0.99929 -0.00301759 0)
(0.995301 -0.00445768 0)
(0.993815 -0.000509534 0)
(0.993777 0.00187758 0)
(0.99559 0.00419434 0)
(0.999171 0.0028776 0)
(1.00137 0.00122691 0)
(0.999365 -0.00218562 0)
(0.996555 -0.00210778 0)
(0.99605 -0.00293207 0)
(0.993199 -0.00248815 0)
(0.990488 0.00190543 0)
(0.991621 0.0036737 0)
(0.992033 0.00590336 0)
(1.00264 0.00233499 0)
(1.00452 -0.00841968 0)
(0.988322 -0.00700217 0)
(0.986105 0.00058858 0)
(0.996215 0.00752195 0)
(1.0016 0.00272048 0)
(0.999143 -0.00286903 0)
(0.995408 -0.00421962 0)
(0.994033 -0.000537359 0)
(0.993946 0.00185769 0)
(0.995628 0.00389039 0)
(0.99906 0.00283024 0)
(1.00116 0.0011085 0)
(0.999219 -0.00195145 0)
(0.996527 -0.0019463 0)
(0.996047 -0.00259351 0)
(0.993506 -0.00216679 0)
(0.990898 0.00198796 0)
(0.991907 0.00382381 0)
(0.99249 0.00571664 0)
(1.00252 0.00229086 0)
(1.00439 -0.00827628 0)
(0.988566 -0.00667909 0)
(0.986476 0.000518547 0)
(0.99631 0.00717103 0)
(1.00138 0.00261281 0)
(0.998999 -0.00273382 0)
(0.995514 -0.00396909 0)
(0.994254 -0.000574225 0)
(0.994115 0.0018392 0)
(0.995668 0.00360264 0)
(0.998953 0.00275282 0)
(1.00095 0.00103211 0)
(0.999079 -0.00174371 0)
(0.996504 -0.00176336 0)
(0.996052 -0.00225082 0)
(0.99381 -0.00185194 0)
(0.991316 0.00204881 0)
(0.992187 0.00395485 0)
(0.992924 0.00554461 0)
(1.0024 0.00225034 0)
(1.00427 -0.00813571 0)
(0.988816 -0.00635308 0)
(0.98685 0.000454688 0)
(0.996411 0.0068135 0)
(1.00117 0.00251345 0)
(0.998858 -0.00261091 0)
(0.995619 -0.00371087 0)
(0.994476 -0.000613215 0)
(0.994284 0.00181237 0)
(0.995711 0.003338 0)
(0.99885 0.00265664 0)
(1.00074 0.00098568 0)
(0.998945 -0.00155048 0)
(0.996487 -0.00157757 0)
(0.996063 -0.00190654 0)
(0.994108 -0.00154385 0)
(0.991742 0.0020863 0)
(0.992463 0.00406733 0)
(0.993332 0.00539057 0)
(1.00227 0.00221395 0)
(1.00414 -0.00799848 0)
(0.989073 -0.00602548 0)
(0.987225 0.000399443 0)
(0.996518 0.0064454 0)
(1.00097 0.00242364 0)
(0.998721 -0.00250154 0)
(0.995722 -0.00344553 0)
(0.994698 -0.000657651 0)
(0.994454 0.00178032 0)
(0.995754 0.00310113 0)
(0.998753 0.00253513 0)
(1.00054 0.000955912 0)
(0.998818 -0.00136253 0)
(0.996477 -0.00139933 0)
(0.996081 -0.00157655 0)
(0.994397 -0.00123012 0)
(0.992173 0.00210501 0)
(0.992738 0.00415 0)
(0.993711 0.00525275 0)
(1.00214 0.00218129 0)
(1.00402 -0.00786401 0)
(0.989337 -0.00569646 0)
(0.987601 0.000351653 0)
(0.996629 0.00606823 0)
(1.00077 0.00234514 0)
(0.998589 -0.00240731 0)
(0.995825 -0.00317733 0)
(0.99492 -0.000696066 0)
(0.994626 0.00173235 0)
(0.995797 0.00290005 0)
(0.998662 0.00238621 0)
(1.00035 0.000948423 0)
(0.998696 -0.00116861 0)
(0.996474 -0.00122725 0)
(0.996109 -0.00126344 0)
(0.994676 -0.000907735 0)
(0.992605 0.00211617 0)
(0.993013 0.00419186 0)
(0.994061 0.00512998 0)
(1.00202 0.00215253 0)
(1.00391 -0.00773089 0)
(0.98961 -0.00537101 0)
(0.987977 0.00031685 0)
(0.996746 0.00568164 0)
(1.00058 0.00227754 0)
(0.998465 -0.00232185 0)
(0.995928 -0.00291433 0)
(0.99514 -0.000725115 0)
(0.994799 0.00165763 0)
(0.995839 0.00273315 0)
(0.998577 0.00223097 0)
(1.00016 0.000939578 0)
(0.998579 -0.000960562 0)
(0.996478 -0.00105243 0)
(0.996148 -0.000976106 0)
(0.994944 -0.000587751 0)
(0.993032 0.00213812 0)
(0.993289 0.004192 0)
(0.994383 0.0050159 0)
(1.00189 0.00212714 0)
(1.00379 -0.00759737 0)
(0.989891 -0.00505179 0)
(0.988352 0.000297455 0)
(0.996869 0.00528518 0)
(1.00039 0.00222082 0)
(0.998346 -0.00224603 0)
(0.996031 -0.00265831 0)
(0.995355 -0.000741143 0)
(0.994975 0.00155856 0)
(0.995881 0.00259581 0)
(0.998496 0.00207487 0)
(0.999996 0.000919395 0)
(0.998469 -0.00073737 0)
(0.996486 -0.000872311 0)
(0.996197 -0.000716464 0)
(0.995204 -0.000284712 0)
(0.99345 0.00218243 0)
(0.993564 0.00416465 0)
(0.99468 0.00489901 0)
(1.00176 0.0021049 0)
(1.00368 -0.00746439 0)
(0.990181 -0.00473779 0)
(0.988726 0.000293528 0)
(0.996998 0.0048764 0)
(1.00021 0.00217437 0)
(0.998235 -0.00217348 0)
(0.996136 -0.00241646 0)
(0.995565 -0.000732385 0)
(0.995154 0.00143383 0)
(0.995923 0.00247991 0)
(0.998417 0.00192711 0)
(0.999845 0.000887482 0)
(0.998367 -0.000517991 0)
(0.996496 -0.000683489 0)
(0.996257 -0.00047804 0)
(0.995459 8.15895e-06 0)
(0.993857 0.00224756 0)
(0.993833 0.00414271 0)
(0.99495 0.00478453 0)
(1.00163 0.00208622 0)
(1.00357 -0.00733082 0)
(0.990481 -0.00443662 0)
(0.989096 0.000307296 0)
(0.997134 0.00445813 0)
(1.00004 0.00213381 0)
(0.998129 -0.00209686 0)
(0.996243 -0.00220148 0)
(0.995769 -0.000695884 0)
(0.995335 0.00128785 0)
(0.995968 0.0023698 0)
(0.99834 0.00180641 0)
(0.999709 0.000836117 0)
(0.998276 -0.000309225 0)
(0.996507 -0.000477532 0)
(0.996327 -0.000259847 0)
(0.99571 0.000262717 0)
(0.994254 0.00229685 0)
(0.994096 0.00413149 0)
(0.995187 0.00468496 0)
(1.0015 0.00207006 0)
(1.00347 -0.00719369 0)
(0.990791 -0.00414887 0)
(0.989462 0.000341578 0)
(0.997276 0.00403562 0)
(0.99988 0.00209719 0)
(0.998029 -0.00201417 0)
(0.996356 -0.00201511 0)
(0.995965 -0.000630012 0)
(0.995517 0.00113196 0)
(0.996017 0.00226118 0)
(0.998263 0.00171819 0)
(0.999588 0.000775144 0)
(0.998201 -0.000121131 0)
(0.99652 -0.000250272 0)
(0.9964 -5.62375e-05 0)
(0.995955 0.000471835 0)
(0.994646 0.00232054 0)
(0.994358 0.00411277 0)
(0.995387 0.00462106 0)
(1.00137 0.00205516 0)
(1.00337 -0.00705061 0)
(0.991113 -0.00387701 0)
(0.989821 0.000397777 0)
(0.997424 0.0036057 0)
(0.999731 0.00205573 0)
(0.997932 -0.00191785 0)
(0.996473 -0.00186221 0)
(0.996154 -0.000541901 0)
(0.995698 0.000976352 0)
(0.996073 0.00214161 0)
(0.998186 0.00166495 0)
(0.99948 0.000714911 0)
(0.998145 3.47005e-05 0)
(0.996535 -1.5907e-05 0)
(0.996472 0.000132032 0)
(0.996193 0.000652344 0)
(0.995033 0.00233496 0)
(0.994624 0.00406646 0)
(0.995551 0.00459749 0)
(1.00125 0.00204149 0)
(1.00328 -0.00690037 0)
(0.991447 -0.00362495 0)
(0.990174 0.000474187 0)
(0.997578 0.00317467 0)
(0.999597 0.00201027 0)
(0.997839 -0.00180002 0)
(0.996597 -0.00174832 0)
(0.996336 -0.000435191 0)
(0.995874 0.000832586 0)
(0.996139 0.00199758 0)
(0.998109 0.00164015 0)
(0.999381 0.000674837 0)
(0.998109 0.000152984 0)
(0.996554 0.000222797 0)
(0.996541 0.000333852 0)
(0.996423 0.000807368 0)
(0.995412 0.00233453 0)
(0.994902 0.00398299 0)
(0.99569 0.00458478 0)
(1.00113 0.00202894 0)
(1.00319 -0.00674235 0)
(0.991795 -0.00339537 0)
(0.990518 0.000574746 0)
(0.997735 0.00274903 0)
(0.99948 0.00195045 0)
(0.997746 -0.00165599 0)
(0.996725 -0.00167127 0)
(0.996515 -0.000317493 0)
(0.996044 0.000713408 0)
(0.996215 0.0018293 0)
(0.998037 0.00162754 0)
(0.999286 0.000662143 0)
(0.998095 0.000238071 0)
(0.996584 0.000447001 0)
(0.996602 0.000565942 0)
(0.996639 0.000955936 0)
(0.99578 0.00231357 0)
(0.995192 0.00387296 0)
(0.995816 0.00455498 0)
(1.00101 0.00201492 0)
(1.00311 -0.00657079 0)
(0.992158 -0.00319355 0)
(0.990853 0.00069123 0)
(0.997893 0.00233489 0)
(0.999384 0.00186934 0)
(0.997654 -0.00148178 0)
(0.996858 -0.0016259 0)
(0.996692 -0.000209763 0)
(0.996203 0.000634574 0)
(0.996302 0.00164025 0)
(0.997975 0.00161421 0)
(0.999194 0.000682687 0)
(0.998098 0.000301305 0)
(0.996632 0.0006275 0)
(0.996661 0.00079691 0)
(0.996832 0.00111074 0)
(0.996131 0.00228053 0)
(0.995495 0.00373973 0)
(0.995943 0.0044951 0)
(1.00089 0.0019987 0)
(1.00303 -0.00638281 0)
(0.992535 -0.00302044 0)
(0.99118 0.000827528 0)
(0.998051 0.00193858 0)
(0.99931 0.00176624 0)
(0.997563 -0.0012818 0)
(0.996991 -0.00159618 0)
(0.996872 -0.000120656 0)
(0.996351 0.000599481 0)
(0.996396 0.00144576 0)
(0.997926 0.00158584 0)
(0.999103 0.000746095 0)
(0.998114 0.000352873 0)
(0.996699 0.000756829 0)
(0.996721 0.00100374 0)
(0.997004 0.00127739 0)
(0.99646 0.00225796 0)
(0.995808 0.00358092 0)
(0.996082 0.00440022 0)
(1.00078 0.00197972 0)
(1.00295 -0.00617921 0)
(0.992928 -0.00287686 0)
(0.991497 0.00097973 0)
(0.998205 0.00156761 0)
(0.999262 0.00162822 0)
(0.997473 -0.00105685 0)
(0.997124 -0.00157613 0)
(0.997057 -5.98142e-05 0)
(0.996486 0.000609411 0)
(0.996494 0.00125882 0)
(0.997897 0.00152707 0)
(0.999015 0.000831436 0)
(0.998132 0.000412694 0)
(0.996784 0.000839025 0)
(0.996792 0.00117765 0)
(0.997157 0.00144675 0)
(0.996758 0.00226371 0)
(0.99612 0.00341364 0)
(0.996237 0.00427211 0)
(1.00067 0.00195675 0)
(1.00287 -0.00595592 0)
(0.993337 -0.00276475 0)
(0.991806 0.00113669 0)
(0.998351 0.00122943 0)
(0.999241 0.00145966 0)
(0.997386 -0.000811588 0)
(0.99725 -0.00155376 0)
(0.997251 -4.25419e-05 0)
(0.996612 0.000657711 0)
(0.996589 0.00109803 0)
(0.997889 0.00143167 0)
(0.998935 0.000927159 0)
(0.998148 0.000503163 0)
(0.996884 0.000893987 0)
(0.996879 0.00131162 0)
(0.997299 0.00159941 0)
(0.997022 0.00229682 0)
(0.996423 0.0032628 0)
(0.99641 0.00411159 0)
(1.00057 0.00192771 0)
(1.0028 -0.00570804 0)
(0.993761 -0.00268771 0)
(0.992108 0.00129915 0)
(0.998486 0.000932163 0)
(0.999249 0.00125539 0)
(0.997305 -0.000558586 0)
(0.997365 -0.00151226 0)
(0.997456 -7.28834e-05 0)
(0.996731 0.00072211 0)
(0.996675 0.000982563 0)
(0.997903 0.00129929 0)
(0.998872 0.00101341 0)
(0.998158 0.00063481 0)
(0.996989 0.000943385 0)
(0.996981 0.00139455 0)
(0.997437 0.00172179 0)
(0.997256 0.00234745 0)
(0.996704 0.00314309 0)
(0.996595 0.00393182 0)
(1.00047 0.00189139 0)
(1.00272 -0.00543546 0)
(0.994199 -0.00264065 0)
(0.992405 0.00145542 0)
(0.998607 0.000682918 0)
(0.999286 0.00101988 0)
(0.997234 -0.00031002 0)
(0.997464 -0.00144146 0)
(0.997671 -0.000147357 0)
(0.996852 0.00079221 0)
(0.996747 0.000920946 0)
(0.997934 0.00115062 0)
(0.998835 0.00106478 0)
(0.998165 0.000791163 0)
(0.997087 0.00100708 0)
(0.997094 0.0014333 0)
(0.997582 0.00180189 0)
(0.997468 0.00240226 0)
(0.996959 0.00306475 0)
(0.996786 0.00375095 0)
(1.00038 0.00184682 0)
(1.00264 -0.00513788 0)
(0.99465 -0.0026192 0)
(0.992699 0.00159836 0)
(0.998708 0.000487979 0)
(0.999352 0.000755148 0)
(0.997177 -7.70693e-05 0)
(0.997542 -0.00133053 0)
(0.997895 -0.000253691 0)
(0.996981 0.000844604 0)
(0.9968 0.000914697 0)
(0.997973 0.00100525 0)
(0.998828 0.00106884 0)
(0.998176 0.000948017 0)
(0.997172 0.0010943 0)
(0.997211 0.00145141 0)
(0.997738 0.00183177 0)
(0.99767 0.00243561 0)
(0.997183 0.00303219 0)
(0.996976 0.00358113 0)
(1.0003 0.00179224 0)
(1.00256 -0.00481273 0)
(0.995112 -0.0026232 0)
(0.992993 0.00172077 0)
(0.998788 0.000349455 0)
(0.999443 0.000473671 0)
(0.997142 0.000128457 0)
(0.997595 -0.00118145 0)
(0.998122 -0.000380625 0)
(0.997126 0.000863284 0)
(0.996839 0.000961604 0)
(0.998011 0.000882583 0)
(0.998855 0.00101798 0)
(0.998201 0.0010865 0)
(0.997241 0.00121463 0)
(0.99732 0.00147664 0)
(0.9979 0.00181821 0)
(0.99788 0.00242453 0)
(0.997384 0.00302963 0)
(0.997152 0.00345152 0)
(1.00022 0.00172721 0)
(1.00246 -0.00446477 0)
(0.995579 -0.0026432 0)
(0.993289 0.00181311 0)
(0.998843 0.000273293 0)
(0.999556 0.000184294 0)
(0.997132 0.000298814 0)
(0.997624 -0.000984319 0)
(0.998346 -0.000511056 0)
(0.997296 0.000838629 0)
(0.996866 0.00104464 0)
(0.998034 0.000805626 0)
(0.99891 0.000926664 0)
(0.998254 0.00118511 0)
(0.997301 0.00135718 0)
(0.997408 0.00152144 0)
(0.998059 0.00178326 0)
(0.998106 0.00236177 0)
(0.99758 0.003014 0)
(0.997303 0.0033844 0)
(1.00015 0.00165171 0)
(1.00237 -0.00409646 0)
(0.99605 -0.00267232 0)
(0.993592 0.0018668 0)
(0.998871 0.00025691 0)
(0.999686 -0.000108828 0)
(0.997156 0.000420011 0)
(0.997626 -0.000743738 0)
(0.998555 -0.000625098 0)
(0.997495 0.000760675 0)
(0.996892 0.00113854 0)
(0.998035 0.000781763 0)
(0.998983 0.000814706 0)
(0.998341 0.00122734 0)
(0.997359 0.00149961 0)
(0.997469 0.00159109 0)
(0.998201 0.00175326 0)
(0.998344 0.00225905 0)
(0.997797 0.00294972 0)
(0.997436 0.00336316 0)
(1.00009 0.00156531 0)
(1.00226 -0.00370929 0)
(0.996518 -0.00270909 0)
(0.993905 0.00187593 0)
(0.998872 0.000295381 0)
(0.999824 -0.000387188 0)
(0.997219 0.000482552 0)
(0.997608 -0.000482026 0)
(0.998741 -0.000707523 0)
(0.997721 0.000634145 0)
(0.996929 0.0012298 0)
(0.99801 0.000820489 0)
(0.999062 0.000709476 0)
(0.998468 0.00120892 0)
(0.99743 0.00162391 0)
(0.997507 0.0016908 0)
(0.998312 0.00174341 0)
(0.998579 0.00214102 0)
(0.998047 0.00282712 0)
(0.997575 0.00333175 0)
(1.00004 0.0014679 0)
(1.00214 -0.00331236 0)
(0.996978 -0.002739 0)
(0.994231 0.00183823 0)
(0.998848 0.000379906 0)
(0.999962 -0.000626794 0)
(0.997323 0.000479448 0)
(0.997575 -0.000211748 0)
(0.998893 -0.000739825 0)
(0.997974 0.00046739 0)
(0.996991 0.00129073 0)
(0.99796 0.000908609 0)
(0.999129 0.000629953 0)
(0.998632 0.00113069 0)
(0.997528 0.0017053 0)
(0.997526 0.00180825 0)
(0.998384 0.0017589 0)
(0.998795 0.00203276 0)
(0.998325 0.00266421 0)
(0.997753 0.00323981 0)
(1 0.00136136 0)
(1.00202 -0.00291257 0)
(0.997423 -0.00275383 0)
(0.994573 0.00175056 0)
(0.998802 0.000496519 0)
(1.00009 -0.000817966 0)
(0.99747 0.00041551 0)
(0.997538 4.80863e-05 0)
(0.999005 -0.000713953 0)
(0.998243 0.00028012 0)
(0.997088 0.00130293 0)
(0.997892 0.00102916 0)
(0.999169 0.000594523 0)
(0.998822 0.0010146 0)
(0.997669 0.00172935 0)
(0.99754 0.00192566 0)
(0.998415 0.00180533 0)
(0.998977 0.00194648 0)
(0.998609 0.00249364 0)
(0.99799 0.00307559 0)
(0.999966 0.00124642 0)
(1.00188 -0.00251528 0)
(0.997848 -0.00274784 0)
(0.99493 0.00161399 0)
(0.998739 0.000636853 0)
(1.0002 -0.000952834 0)
(0.997656 0.000305554 0)
(0.997506 0.000288308 0)
(0.999071 -0.000624889 0)
(0.998517 0.000100496 0)
(0.997229 0.00126266 0)
(0.997819 0.00116789 0)
(0.99917 0.00061792 0)
(0.999023 0.000891482 0)
(0.997858 0.00168891 0)
(0.997566 0.00202016 0)
(0.998407 0.00188242 0)
(0.999116 0.00188348 0)
(0.998877 0.00234127 0)
(0.998274 0.00286861 0)
(0.99994 0.00112622 0)
(1.00173 -0.00213144 0)
(0.998244 -0.00270943 0)
(0.995305 0.00143932 0)
(0.998667 0.000784462 0)
(1.00029 -0.00101866 0)
(0.997877 0.00015725 0)
(0.997494 0.000489276 0)
(0.999091 -0.000477529 0)
(0.998781 -5.44164e-05 0)
(0.997416 0.00116315 0)
(0.997757 0.00129181 0)
(0.999131 0.000696514 0)
(0.999213 0.000785525 0)
(0.998093 0.00158792 0)
(0.997626 0.00206974 0)
(0.99837 0.00198012 0)
(0.999207 0.00184936 0)
(0.999115 0.00221097 0)
(0.998572 0.0026677 0)
(0.999921 0.00100309 0)
(1.00158 -0.00176694 0)
(0.998608 -0.00263603 0)
(0.995694 0.00123288 0)
(0.998592 0.000920923 0)
(1.00034 -0.00101962 0)
(0.998125 -5.56534e-06 0)
(0.997509 0.000631176 0)
(0.999071 -0.000295138 0)
(0.999018 -0.000175007 0)
(0.997646 0.00101742 0)
(0.997724 0.00138098 0)
(0.999054 0.000819647 0)
(0.99937 0.00071906 0)
(0.998361 0.00144734 0)
(0.997736 0.00205817 0)
(0.998319 0.00207575 0)
(0.999245 0.00185354 0)
(0.999318 0.00209059 0)
(0.998848 0.00250626 0)
(0.999908 0.00087942 0)
(1.00142 -0.00142694 0)
(0.998934 -0.00252715 0)
(0.996095 0.00100392 0)
(0.998524 0.00103414 0)
(1.00036 -0.000957708 0)
(0.998388 -0.000174293 0)
(0.99756 0.000708448 0)
(0.999019 -9.7938e-05 0)
(0.999218 -0.000243647 0)
(0.997912 0.00084619 0)
(0.997735 0.00141861 0)
(0.998952 0.000962539 0)
(0.99948 0.000701675 0)
(0.998644 0.00129618 0)
(0.997905 0.00198422 0)
(0.998281 0.00214338 0)
(0.99923 0.00190034 0)
(0.999486 0.00198121 0)
(0.99909 0.0023814 0)
(0.999902 0.000758923 0)
(1.00126 -0.00112044 0)
(0.999219 -0.00238043 0)
(0.996502 0.000766676 0)
(0.998469 0.00111345 0)
(1.00034 -0.000840884 0)
(0.998653 -0.000334367 0)
(0.997651 0.000721816 0)
(0.998948 0.000105045 0)
(0.999372 -0.000251991 0)
(0.998197 0.000669683 0)
(0.997798 0.00139805 0)
(0.998843 0.00110306 0)
(0.999538 0.000737314 0)
(0.998917 0.00116075 0)
(0.998127 0.00186034 0)
(0.998282 0.00215898 0)
(0.999171 0.00197274 0)
(0.99961 0.00189887 0)
(0.999302 0.00226297 0)
(0.9999 0.000643532 0)
(1.0011 -0.000849805 0)
(0.999461 -0.00219971 0)
(0.996908 0.00053233 0)
(0.998435 0.0011497 0)
(1.00028 -0.000686456 0)
(0.998908 -0.000460568 0)
(0.997785 0.000679026 0)
(0.998872 0.00030034 0)
(0.999475 -0.000199864 0)
(0.998485 0.000509932 0)
(0.997916 0.00132397 0)
(0.998746 0.00121868 0)
(0.999543 0.000816535 0)
(0.999158 0.00105901 0)
(0.998386 0.00170878 0)
(0.998341 0.00211245 0)
(0.999093 0.00204101 0)
(0.999677 0.00186327 0)
(0.999494 0.00213674 0)
(0.999903 0.000535934 0)
(1.00094 -0.000617914 0)
(0.999659 -0.0019924 0)
(0.997307 0.000313506 0)
(0.998428 0.00114097 0)
(1.0002 -0.000510702 0)
(0.999141 -0.000541886 0)
(0.997958 0.000594734 0)
(0.998807 0.000460036 0)
(0.999528 -0.000104498 0)
(0.998756 0.000380725 0)
(0.998084 0.00120891 0)
(0.99868 0.00129186 0)
(0.999508 0.000918276 0)
(0.999351 0.00100029 0)
(0.99866 0.00155637 0)
(0.998463 0.00201252 0)
(0.999029 0.00207402 0)
(0.999685 0.00187268 0)
(0.999661 0.00201402 0)
(0.999909 0.000438239 0)
(1.0008 -0.000424882 0)
(0.999816 -0.00176665 0)
(0.997691 0.000119202 0)
(0.99845 0.00109054 0)
(1.0001 -0.00032718 0)
(0.999342 -0.000574258 0)
(0.998162 0.000487425 0)
(0.998765 0.00057256 0)
(0.99954 1.89143e-05 0)
(0.998997 0.000294204 0)
(0.99829 0.00107367 0)
(0.998657 0.00131591 0)
(0.999449 0.0010206 0)
(0.999491 0.00098375 0)
(0.998926 0.0014222 0)
(0.998636 0.00187952 0)
(0.999007 0.00205359 0)
(0.999648 0.00190279 0)
(0.99979 0.00191811 0)
(0.999918 0.000351745 0)
(1.00066 -0.000269673 0)
(0.999934 -0.00153164 0)
(0.998052 -4.07179e-05 0)
(0.998501 0.00100511 0)
(0.999997 -0.000150953 0)
(0.999508 -0.000558935 0)
(0.998384 0.000371564 0)
(0.998754 0.000635123 0)
(0.999522 0.000157009 0)
(0.999197 0.000255447 0)
(0.998518 0.000937371 0)
(0.998683 0.00129266 0)
(0.999386 0.00110638 0)
(0.99958 0.00100091 0)
(0.999163 0.00131657 0)
(0.998841 0.00173759 0)
(0.999042 0.00198092 0)
(0.999596 0.0019215 0)
(0.999868 0.00186005 0)
(0.999927 0.00027695 0)
(1.00054 -0.000149515 0)
(1.00002 -0.00129708 0)
(0.998384 -0.000164295 0)
(0.998581 0.000893469 0)
(0.99989 3.71249e-06 0)
(0.999634 -0.000502153 0)
(0.998614 0.000262964 0)
(0.998779 0.000651946 0)
(0.999488 0.000287123 0)
(0.999353 0.000258845 0)
(0.998751 0.000814583 0)
(0.998757 0.00123096 0)
(0.999336 0.001163 0)
(0.999628 0.00103614 0)
(0.999361 0.00124117 0)
(0.999054 0.00160503 0)
(0.999129 0.00187327 0)
(0.999561 0.00190567 0)
(0.999898 0.00182967 0)
(0.999938 0.00021412 0)
(1.00043 -6.04297e-05 0)
(1.00007 -0.00107118 0)
(0.998683 -0.000250732 0)
(0.998685 0.000766843 0)
(0.999793 0.000131604 0)
(0.999724 -0.000414756 0)
(0.998838 0.000172753 0)
(0.998839 0.000631995 0)
(0.999453 0.00039648 0)
(0.999467 0.00029519 0)
(0.998973 0.000716187 0)
(0.998869 0.00114462 0)
(0.999312 0.00118449 0)
(0.999648 0.00107369 0)
(0.999519 0.0011924 0)
(0.999258 0.00148976 0)
(0.999253 0.00175181 0)
(0.99956 0.00184995 0)
(0.9999 0.00180494 0)
(0.999948 0.000162645 0)
(1.00034 2.37037e-06 0)
(1.0001 -0.000860773 0)
(0.998945 -0.000298438 0)
(0.998809 0.000636528 0)
(0.999714 0.000228459 0)
(0.999781 -0.000309077 0)
(0.999047 0.000108212 0)
(0.998929 0.000587394 0)
(0.999429 0.000477618 0)
(0.999544 0.000349668 0)
(0.999171 0.000647075 0)
(0.999009 0.00104942 0)
(0.999319 0.00117224 0)
(0.999655 0.00110235 0)
(0.999638 0.00116327 0)
(0.999441 0.00139342 0)
(0.999395 0.00163204 0)
(0.999599 0.00176433 0)
(0.999897 0.00176649 0)
(0.999958 0.000121695 0)
(1.00026 4.40226e-05 0)
(1.00011 -0.00067115 0)
(0.999171 -0.000311906 0)
(0.998945 0.000511913 0)