/*--------------------------------*- C++ -*----------------------------------*\
| =========                 |                                                 |
| \\      /  F ield         | OpenFOAM: The Open Source CFD Toolbox           |
|  \\    /   O peration     | Version:  2106                                  |
|   \\  /    A nd           | Website:  www.openfoam.com                      |
|    \\/     M anipulation  |                                                 |
\*---------------------------------------------------------------------------*/
FoamFile
{
    version     2.0;
    format      ascii;
    arch        "LSB;label=32;scalar=64";
    class       volScalarField;
    location    "0.82";
    object      p;
}
// * * * * * * * * * * * * * * * * * * * * * * * * * * * * * * * * * * * * * //

dimensions      [0 2 -2 0 0 0 0];

internalField   nonuniform List<scalar> 
9600
(
1.9433e-10
-0.000118404
0.000249121
0.000468906
0.000835464
0.000446232
-4.60752e-07
-5.93004e-05
-0.00108786
-0.00042607
-0.000206728
0.00106109
0.000861452
0.00144273
0.00211071
0.00328442
0.00426829
0.00553845
0.00785162
0.0134486
2.09131e-06
-0.00012606
0.000249285
0.000474787
0.000831515
0.000436075
1.12984e-05
-6.51384e-05
-0.00107143
-0.000421557
-0.000208352
0.00106061
0.000864516
0.0014439
0.00211357
0.00327114
0.00430189
0.00550422
0.00811363
0.0130459
3.51048e-06
-0.000134423
0.000251144
0.000480339
0.000824619
0.000423465
2.4631e-05
-7.30554e-05
-0.00104994
-0.000415374
-0.00020924
0.00105815
0.000870256
0.00144585
0.0021134
0.00325997
0.00431892
0.0054655
0.00824403
0.0124817
3.41364e-06
-0.000141614
0.000253766
0.000484043
0.000817211
0.000408744
3.40301e-05
-8.06095e-05
-0.00102685
-0.000407409
-0.000210271
0.00105217
0.000877469
0.00144716
0.0021116
0.00324775
0.00432929
0.00542407
0.00830188
0.0119998
2.15909e-06
-0.000147499
0.000256755
0.000486134
0.000809687
0.000391245
4.10741e-05
-8.70879e-05
-0.00100033
-0.000399015
-0.000212423
0.00104317
0.000885692
0.0014464
0.00210979
0.00323111
0.00434075
0.00537707
0.00833257
0.0115702
5.16295e-08
-0.000152094
0.000259986
0.000486731
0.000802248
0.000371691
4.71721e-05
-9.2624e-05
-0.000971256
-0.000391145
-0.000215367
0.00103235
0.000894458
0.00144327
0.00210878
0.00321155
0.00435493
0.00532756
0.00833243
0.0111686
-2.65808e-06
-0.000155574
0.000263332
0.000486226
0.000795142
0.000350786
5.26603e-05
-9.74473e-05
-0.000940456
-0.000383914
-0.000218623
0.00102063
0.000903699
0.00143796
0.00210898
0.00318917
0.00436175
0.00527607
0.0082976
0.0107896
-5.71307e-06
-0.000158286
0.000266805
0.000485133
0.000788261
0.00032893
5.77561e-05
-0.000101891
-0.000908383
-0.000377255
-0.000221886
0.00100863
0.000913598
0.00143048
0.00210988
0.00316395
0.00436345
0.00522316
0.00822715
0.0104295
-8.9083e-06
-0.000160619
0.000270519
0.00048381
0.000781285
0.000306451
6.26764e-05
-0.000106366
-0.000875257
-0.000371065
-0.000224996
0.000996662
0.000924308
0.00142089
0.00211068
0.00313643
0.00435822
0.00516916
0.00812184
0.0100836
-1.21232e-05
-0.000162903
0.000274582
0.000482429
0.000773938
0.000283646
6.75679e-05
-0.000111195
-0.000841259
-0.000365209
-0.000227946
0.000984845
0.00093585
0.00140939
0.00211062
0.00310727
0.00434446
0.00511405
0.00798355
0.00974714
-1.53071e-05
-0.000165375
0.000279048
0.000481058
0.000766052
0.000260738
7.25343e-05
-0.000116545
-0.000806604
-0.000359521
-0.000230794
0.000973268
0.00094801
0.00139619
0.00210903
0.00307713
0.0043208
0.00505716
0.00781519
0.00941548
-1.84475e-05
-0.000168191
0.000283916
0.000479721
0.000757545
0.000237867
7.76422e-05
-0.000122453
-0.000771535
-0.000353818
-0.000233632
0.000961971
0.000960332
0.00138166
0.00210524
0.00304653
0.00428629
0.00499705
0.00762042
0.00908422
-2.15428e-05
-0.000171452
0.000289152
0.000478436
0.000748379
0.000215091
8.2912e-05
-0.000128855
-0.00073632
-0.000347907
-0.000236635
0.000951032
0.000972279
0.00136628
0.00209865
0.00301537
0.00424058
0.00493189
0.0074032
0.00875017
-2.45876e-05
-0.000175227
0.000294701
0.000477232
0.000738531
0.000192417
8.83208e-05
-0.000135621
-0.000701251
-0.000341572
-0.000240064
0.000940665
0.00098331
0.00135031
0.00208868
0.00298322
0.00418403
0.0048594
0.00716737
0.00841127
-2.7567e-05
-0.000179574
0.000300497
0.000476147
0.000727974
0.00016983
9.38191e-05
-0.000142584
-0.000666633
-0.000334583
-0.000244213
0.000931156
0.000992926
0.00133378
0.00207503
0.00294959
0.00411761
0.00477654
0.00691632
0.00806732
-3.04564e-05
-0.000184547
0.00030647
0.000475225
0.000716676
0.000147319
9.93354e-05
-0.000149532
-0.000632825
-0.000326665
-0.000249413
0.000922694
0.0010008
0.00131658
0.00205775
0.00291306
0.00404247
0.0046814
0.00665284
0.0077194
-3.32211e-05
-0.000190206
0.000312544
0.000474511
0.0007046
0.000124903
0.00010477
-0.00015621
-0.000600248
-0.000317511
-0.000255982
0.000915333
0.00100684
0.00129832
0.00203714
0.0028715
0.00395933
0.00457345
0.00637849
0.00736825
-3.58146e-05
-0.000196617
0.000318638
0.000474052
0.000691696
0.000102642
0.000109988
-0.000162347
-0.000569337
-0.000306827
-0.000264139
0.000909098
0.00101108
0.0012782
0.00201403
0.00282306
0.00386786
0.00445345
0.00609378
0.00701433
-3.81782e-05
-0.000203853
0.000324665
0.000473902
0.000677914
8.0646e-05
0.000114802
-0.000167657
-0.000540535
-0.00029436
-0.00027406
0.000903898
0.00101388
0.00125502
0.00198934
0.00276647
0.00376682
0.00432277
0.00579961
0.00665815
-4.02412e-05
-0.000211994
0.000330518
0.000474123
0.000663199
5.90736e-05
0.000118986
-0.000171836
-0.00051428
-0.00027998
-0.000285719
0.00089928
0.00101598
0.00122735
0.00196334
0.00270161
0.00365455
0.00416385
0.00549753
0.00629953
-4.19236e-05
-0.000221126
0.000336073
0.000474794
0.000647488
3.80962e-05
0.000122291
-0.000174567
-0.000490965
-0.000263638
-0.000298857
0.00089435
0.00101851
0.00119368
0.00193541
0.0026296
0.00352971
0.00401936
0.00519007
0.00593726
-4.31334e-05
-0.000231339
0.000341188
0.000476009
0.000630712
1.79273e-05
0.000124407
-0.000175547
-0.00047111
-0.00024539
-0.000313043
0.000888007
0.00102262
0.00115285
0.00190428
0.00255197
0.00339042
0.00386847
0.00488095
0.00556963
-4.3764e-05
-0.000242731
0.000345689
0.000477878
0.000612775
-1.15428e-06
0.000125001
-0.000174604
-0.0004569
-0.000225491
-0.000327422
0.000878817
0.00102919
0.00110459
0.00186796
0.00247075
0.00323548
0.00370985
0.00457439
0.00519588
-4.36983e-05
-0.00025539
0.000349361
0.000480539
0.000593544
-1.88551e-05
0.000123822
-0.000171669
-0.000443958
-0.000204413
-0.000340752
0.000865077
0.0010385
0.00104926
0.00182378
0.00238786
0.00306532
0.00354101
0.00427419
0.00481695
-4.28136e-05
-0.000269388
0.000351934
0.000484168
0.000572866
-3.48821e-05
0.000120698
-0.000166704
-0.000434338
-0.00018302
-0.000351681
0.000845431
0.00105015
0.00098787
0.00176859
0.00230438
0.00288229
0.00335911
0.00398345
0.00443577
-4.09892e-05
-0.000284793
0.00035312
0.000488962
0.000550568
-4.89503e-05
0.000115504
-0.00015981
-0.000427791
-0.000162516
-0.000359064
0.000819067
0.0010632
0.00092229
0.00169922
0.00222037
0.00269024
0.00316126
0.00370377
0.00405732
-3.80974e-05
-0.000301658
0.000352583
0.000495167
0.000526465
-6.08311e-05
0.00010827
-0.000151422
-0.000423493
-0.000144226
-0.000362317
0.000785694
0.00107602
0.000854453
0.00161359
0.00213481
0.00249349
0.00294551
0.0034345
0.00368844
-3.4006e-05
-0.000320013
0.00034988
0.000503063
0.000500399
-7.04143e-05
9.9239e-05
-0.000142254
-0.000420288
-0.000129292
-0.000361206
0.00074564
0.00108614
0.000785688
0.0015109
0.00204606
0.00229645
0.00271135
0.00317247
0.00333689
-2.85984e-05
-0.000339817
0.000344514
0.000512908
0.00047225
-7.76703e-05
8.88117e-05
-0.000133174
-0.000417069
-0.000118487
-0.000356232
0.000699666
0.00109099
0.00071687
0.0013914
0.00195202
0.00210348
0.00245979
0.0029121
0.00300963
-2.17636e-05
-0.000360965
0.000335911
0.000524938
0.000442
-8.27386e-05
7.77088e-05
-0.000125278
-0.000412912
-0.000112218
-0.000349025
0.000648884
0.00108878
0.000648481
0.00125613
0.00185007
0.00191804
0.00219387
0.00264579
0.00271004
-1.34358e-05
-0.000383276
0.000323425
0.000539362
0.000409826
-8.60297e-05
6.69755e-05
-0.000119908
-0.00040737
-0.000110411
-0.000341523
0.000594202
0.00107833
0.000580735
0.00110676
0.00173771
0.00174251
0.0019191
0.00236555
0.0024347
-3.60794e-06
-0.000406424
0.000306356
0.000556231
0.000376077
-8.81286e-05
5.79199e-05
-0.000118338
-0.000400642
-0.000112484
-0.000335455
0.000535879
0.00105861
0.000514014
0.00094566
0.00161278
0.00157743
0.00164238
0.0020664
0.00217362
7.72992e-06
-0.00043004
0.000283944
0.000575461
0.000341346
-8.9979e-05
5.20994e-05
-0.000121092
-0.000393749
-0.000117323
-0.00033257
0.000473433
0.00102916
0.000448864
0.000775178
0.00147347
0.00142191
0.00137052
0.0017485
0.0019127
2.05117e-05
-0.000453604
0.000255494
0.000596737
0.000306548
-9.29885e-05
5.09475e-05
-0.000128489
-0.000388516
-0.00012352
-0.000333947
0.000405565
0.000990161
0.000386406
0.000596994
0.00131789
0.00127435
0.00110931
0.00141671
0.00163858
3.4552e-05
-0.000476385
0.000220467
0.000619386
0.00027286
-9.87085e-05
5.54657e-05
-0.000139965
-0.000387293
-0.000130057
-0.000339803
0.000330496
0.000941558
0.000328591
0.000413347
0.00114367
0.00113182
0.000862699
0.00107831
0.00134407
4.96204e-05
-0.00049771
0.000178456
0.000642505
0.000241699
-0.000108643
6.60678e-05
-0.000153335
-0.00039267
-0.000136765
-0.000349325
0.000246417
0.00088212
0.000277297
0.00022787
0.00094856
0.000990411
0.000633765
0.000740471
0.00102858
6.54201e-05
-0.000516857
0.000129301
0.000664819
0.000214603
-0.000123938
8.24063e-05
-0.000166361
-0.00040701
-0.000144333
-0.000360268
0.000152889
0.00080953
0.000232944
4.55791e-05
0.000731279
0.000844905
0.00042528
0.0004099
0.000695513
8.15757e-05
-0.000533087
7.3224e-05
0.000684784
0.000192967
-0.000145201
0.00010308
-0.000176382
-0.000432213
-0.000154697
-0.000369366
5.07539e-05
0.000720655
0.000193933
-0.000127586
0.000492792
0.000687934
0.000238473
9.38666e-05
0.000349973
9.76288e-05
-0.000545713
1.08188e-05
0.000710179
0.000177986
-0.00017246
0.000125509
-0.000180103
-0.000468797
-0.000171295
-0.000373991
-5.71206e-05
0.000612676
0.000156073
-0.000285872
0.000237815
0.00051111
7.07735e-05
-0.000199257
-1.36638e-06
0.000113028
-0.00055396
-5.70421e-05
0.000720366
0.000170413
-0.000205028
0.000146613
-0.000175535
-0.000515697
-0.0001984
-0.000373276
-0.00016517
0.000484475
0.000112903
-0.000425795
-2.58761e-05
0.000308193
-8.53556e-05
-0.000462078
-0.000349188
0.000127057
-0.000557026
-0.0001288
0.000721235
0.000170403
-0.000241655
0.000163147
-0.000161489
-0.000569679
-0.000240065
-0.000368417
-0.000267395
0.000337182
5.77704e-05
-0.000547207
-0.000289587
7.77444e-05
-0.000240382
-0.00069149
-0.000682061
0.000138841
-0.000554269
-0.000202296
0.000710568
0.000177219
-0.000280532
0.000171877
-0.000137854
-0.000626736
-0.000299407
-0.000362729
-0.000358784
0.000173833
-1.5008e-05
-0.000652403
-0.000545348
-0.000177452
-0.000405054
-0.000890396
-0.000988524
0.000147521
-0.000545156
-0.000275206
0.000686388
0.000189554
-0.000319386
0.000170151
-0.000106197
-0.000681924
-0.000377471
-0.000362245
-0.000435913
7.25351e-08
-0.000109795
-0.000745631
-0.000786046
-0.000451785
-0.000588477
-0.00106756
-0.00126014
0.000152367
-0.000529076
-0.000345094
0.000647296
0.00020535
-0.000355756
0.000156002
-6.93672e-05
-0.000730124
-0.000473242
-0.000374159
-0.000498817
-0.000176615
-0.000228561
-0.000833001
-0.00100576
-0.000736932
-0.000796223
-0.00123485
-0.00149508
0.000152969
-0.000505766
-0.000409675
0.000592306
0.000221916
-0.000387098
0.000128455
-3.16668e-05
-0.000767454
-0.000583115
-0.000403785
-0.000550331
-0.000349578
-0.000370555
-0.000921867
-0.00120119
-0.00102295
-0.00102918
-0.00140458
-0.00169935
0.000149179
-0.000473848
-0.000467035
0.000521325
0.000235911
-0.000411317
8.78633e-05
1.46533e-06
-0.000792243
-0.000701025
-0.000452903
-0.0005945
-0.000514466
-0.000532908
-0.00101929
-0.00137256
-0.00129947
-0.00128357
-0.00158738
-0.00188364
0.000140938
-0.000443013
-0.000515383
0.000436256
0.000243382
-0.000427813
3.5922e-05
2.50637e-05
-0.000803989
-0.000820681
-0.000521304
-0.000635117
-0.000668289
-0.000711868
-0.00113125
-0.00152427
-0.00155668
-0.00155009
-0.00178934
-0.00206066
0.000128344
-0.000411009
-0.000553132
0.00034131
0.000240275
-0.00043704
-2.37133e-05
3.57245e-05
-0.000807099
-0.000938072
-0.00060717
-0.000675483
-0.000808355
-0.000903163
-0.0012628
-0.00166364
-0.00178777
-0.00181662
-0.00201006
-0.00224273
0.00011167
-0.000379704
-0.000579147
0.000242544
0.000223204
-0.000441324
-8.62386e-05
3.21744e-05
-0.00080643
-0.00105105
-0.000708525
-0.000718525
-0.000932251
-0.00110061
-0.00141766
-0.00179868
-0.001991
-0.00207157
-0.002242
-0.00243655
9.14918e-05
-0.000350973
-0.000593323
0.000143952
0.000190086
-0.000444821
-0.000148526
1.53463e-05
-0.000805692
-0.0011593
-0.000823906
-0.000766636
-0.00103775
-0.00129677
-0.00159714
-0.00193934
-0.00217004
-0.00230531
-0.00247442
-0.00264038
6.85278e-05
-0.000326184
-0.000597059
4.84109e-05
0.000140475
-0.000455595
-0.000210257
-1.04506e-05
-0.000806018
-0.00126494
-0.000953093
-0.000821972
-0.00112285
-0.00148299
-0.00179756
-0.002097
-0.00233354
-0.00251209
-0.0026976
-0.00284767
4.34347e-05
-0.000306243
-0.000592993
-4.08218e-05
7.66623e-05
-0.000476433
-0.000272054
-4.20099e-05
-0.000806655
-0.0013689
-0.00109811
-0.000888055
-0.00118784
-0.00164873
-0.00201011
-0.00227915
-0.00249332
-0.00269275
-0.00290125
-0.00305017
1.68847e-05
-0.000291725
-0.000584259
-0.000121845
3.33682e-06
-0.000509574
-0.00033915
-7.92265e-05
-0.0008034
-0.00146935
-0.00126206
-0.000971816
-0.00123646
-0.00178361
-0.00222307
-0.00248603
-0.00266437
-0.00285672
-0.0030791
-0.00323872
-1.04486e-05
-0.000282742
-0.000574077
-0.000194158
-7.44965e-05
-0.00055555
-0.000416961
-0.000123664
-0.000793523
-0.00156031
-0.00144405
-0.00108432
-0.00127544
-0.00188131
-0.00242004
-0.00270902
-0.00285674
-0.0030178
-0.00323548
-0.00340495
-3.81366e-05
-0.000279122
-0.000565319
-0.000258281
-0.000152719
-0.000612816
-0.000508267
-0.000180886
-0.000777807
-0.00162967
-0.00163853
-0.00123635
-0.00131901
-0.00194288
-0.00258405
-0.0029351
-0.00307088
-0.00318997
-0.00338097
-0.00354797
-6.60786e-05
-0.000280324
-0.000560224
-0.000316148
-0.000227697
-0.000677415
-0.000614475
-0.000257292
-0.000759772
-0.00167011
-0.00183292
-0.00143004
-0.0013886
-0.00197552
-0.00270338
-0.00314664
-0.0032986
-0.00337981
-0.00352832
-0.00367557
-9.44116e-05
-0.000285455
-0.000560067
-0.000370985
-0.000297718
-0.000743443
-0.000735432
-0.000358094
-0.000747875
-0.00168102
-0.00200653
-0.0016577
-0.00150322
-0.00199659
-0.00277547
-0.00332466
-0.00352799
-0.00358592
-0.00368575
-0.00379867
-0.000123756
-0.00029369
-0.00056516
-0.000426204
-0.000362496
-0.000805586
-0.000867975
-0.000487019
-0.000752316
-0.00166557
-0.00214366
-0.00190386
-0.00167089
-0.00203382
-0.00280833
-0.0034544
-0.00374156
-0.00380195
-0.00385525
-0.00392579
-0.000154807
-0.000304857
-0.000574901
-0.000484703
-0.000424058
-0.000859588
-0.00100315
-0.000643338
-0.000784101
-0.00163249
-0.002238
-0.00214226
-0.00188355
-0.00211091
-0.00282115
-0.00353383
-0.00391937
-0.00401735
-0.00403556
-0.00405908
-0.000188047
-0.000319363
-0.000587547
-0.000547431
-0.000488287
-0.000903985
-0.0011303
-0.000823227
-0.000852336
-0.00159714
-0.00229093
-0.00235179
-0.00212498
-0.00223747
-0.00284333
-0.0035735
-0.00404861
-0.00421373
-0.00422203
-0.00419788
-0.000223884
-0.000337838
-0.000602269
-0.000613708
-0.000560094
-0.000941164
-0.00124082
-0.00101645
-0.000960102
-0.00157649
-0.00230797
-0.00251996
-0.00237077
-0.00240679
-0.0028947
-0.00359517
-0.00413289
-0.0043738
-0.00440415
-0.004342
-0.000262485
-0.000361002
-0.000620129
-0.000682828
-0.000641405
-0.000978113
-0.00133123
-0.00120823
-0.00110407
-0.0015843
-0.00230249
-0.0026426
-0.00259847
-0.00260598
-0.0029824
-0.00361986
-0.00418497
-0.0044923
-0.00456665
-0.00448904
-0.000303925
-0.000389569
-0.000639183
-0.000751304
-0.000731825
-0.00102205
-0.00140344
-0.00138471
-0.00127595
-0.00162974
-0.00229335
-0.00272427
-0.0027922
-0.002815
-0.00310286
-0.00365929
-0.00422164
-0.00457432
-0.00469695
-0.00462939
-0.000348264
-0.000424094
-0.000661779
-0.000817473
-0.000829699
-0.00107735
-0.00146316
-0.0015399
-0.00146097
-0.00171285
-0.00229624
-0.00277479
-0.00294522
-0.0030115
-0.00324599
-0.00371824
-0.00425357
-0.0046316
-0.00479233
-0.00474953
-0.00039548
-0.00046485
-0.000689463
-0.000880608
-0.000931939
-0.00114616
-0.0015183
-0.00167328
-0.00164441
-0.00182723
-0.00232168
-0.0028091
-0.00306084
-0.00318072
-0.0033937
-0.00379362
-0.00428554
-0.00467305
-0.00485844
-0.00483948
-0.000445569
-0.000511743
-0.000723793
-0.000941418
-0.00103445
-0.00122809
-0.00157664
-0.00178801
-0.00181694
-0.00196304
-0.00237334
-0.00284079
-0.00314605
-0.00331718
-0.00352846
-0.00387614
-0.00431686
-0.00469931
-0.00490098
-0.00489776
-0.000498708
-0.000564302
-0.000765543
-0.00100134
-0.00113471
-0.00132053
-0.00164338
-0.00188988
-0.00197508
-0.00210876
-0.00244869
-0.00287805
-0.00320935
-0.00342247
-0.00363989
-0.00395184
-0.00434368
-0.00470762
-0.00491922
-0.00492686
-0.000555109
-0.00062189
-0.000814729
-0.00106202
-0.00123192
-0.0014207
-0.00172054
-0.00198591
-0.00211995
-0.00225699
-0.0025432
-0.0029253
-0.00325894
-0.003499
-0.00372314
-0.00400864
-0.00435697
-0.0046939
-0.00490804
-0.00492472
-0.000614819
-0.000683912
-0.000871003
-0.00112517
-0.00132616
-0.00152548
-0.00180857
-0.00208282
-0.00225547
-0.00240387
-0.00265215
-0.00298563
-0.00330195
-0.00355003
-0.00377519
-0.00403688
-0.00434442
-0.00464803
-0.00485562
-0.00487999
-0.00067774
-0.000749942
-0.000933604
-0.00119177
-0.00141842
-0.0016326
-0.00190617
-0.00218465
-0.00238729
-0.00255021
-0.00277222
-0.00306125
-0.00334707
-0.00358238
-0.00379346
-0.00402577
-0.00429006
-0.00455219
-0.00474122
-0.00476935
-0.000743611
-0.000819532
-0.00100178
-0.00126225
-0.00150938
-0.00174068
-0.00201204
-0.00229304
-0.0025193
-0.00269928
-0.00290496
-0.00315555
-0.00340508
-0.00361031
-0.00378436
-0.00396663
-0.00417141
-0.00437472
-0.0045263
-0.00454795
-0.000811952
-0.000892056
-0.0010743
-0.0013367
-0.00160007
-0.00184878
-0.00212414
-0.00240931
-0.00265466
-0.00285344
-0.00305364
-0.00327313
-0.00348632
-0.00365523
-0.00377288
-0.00387126
-0.00397553
-0.00407269
-0.00413564
-0.00411575
-0.000882369
-0.00096673
-0.0011495
-0.00141465
-0.0016911
-0.0019569
-0.00224071
-0.00253308
-0.00279536
-0.00301407
-0.00321944
-0.00341879
-0.00359692
-0.0037247
-0.00377721
-0.00376525
-0.00371934
-0.00363637
-0.00349899
-0.00331312
-0.00095396
-0.00104246
-0.00122665
-0.00149434
-0.0017825
-0.00206502
-0.00236006
-0.00266359
-0.0029418
-0.00317734
-0.00339122
-0.00358412
-0.00373546
-0.00381231
-0.00377454
-0.00358789
-0.00327727
-0.00290957
-0.00255778
-0.00231216
-0.00102538
-0.00111777
-0.00130454
-0.00157505
-0.00187349
-0.00217072
-0.00248034
-0.00279851
-0.00309335
-0.00334075
-0.00354524
-0.00370867
-0.00380262
-0.00377313
-0.00358708
-0.00323124
-0.0027777
-0.00235141
-0.00203478
-0.00189441
-0.00109503
-0.0011909
-0.00138125
-0.00165586
-0.00196314
-0.00227266
-0.00259488
-0.00292696
-0.00324201
-0.00350114
-0.00368096
-0.00377387
-0.00376022
-0.00358837
-0.00327518
-0.0028651
-0.00241661
-0.00203209
-0.00178577
-0.00173062
-0.00116041
-0.00126008
-0.00145388
-0.00173431
-0.00205071
-0.00237063
-0.00269973
-0.00303081
-0.00334668
-0.00362128
-0.00380397
-0.00384611
-0.0037361
-0.00344306
-0.00301016
-0.0025416
-0.00209096
-0.00172215
-0.0014973
-0.00147763
-0.00121906
-0.00132267
-0.00151992
-0.00180464
-0.00213004
-0.00246323
-0.0028003
-0.00312487
-0.00339609
-0.00358297
-0.00368299
-0.00367146
-0.00358932
-0.00343106
-0.00313579
-0.00274078
-0.0023083
-0.00190988
-0.00163717
-0.00157279
-0.00126831
-0.00137521
-0.00157759
-0.00186364
-0.00219255
-0.00252934
-0.00286459
-0.00319817
-0.00350371
-0.00372585
-0.00383045
-0.00376258
-0.00352173
-0.00318066
-0.0027591
-0.00230321
-0.00188694
-0.00156328
-0.00138629
-0.00140867
-0.00130708
-0.00142033
-0.00162861
-0.00192001
-0.00225757
-0.00260701
-0.00295035
-0.00327281
-0.00355374
-0.00373079
-0.00378643
-0.00370907
-0.00348057
-0.00314797
-0.00275454
-0.00232958
-0.00193901
-0.00163872
-0.00148178
-0.00152071
0.0223687
0.0140946
0.00381948
-0.0035099
-0.00606985
-0.0057194
-0.00504214
-0.004886
-0.0050514
-0.00523678
-0.00534861
-0.00537689
-0.00536568
-0.00541469
-0.00555214
-0.00574051
-0.00594034
-0.0061018
-0.00622298
-0.00636005
-0.00653389
-0.00672351
-0.00689907
-0.00704593
-0.00720323
-0.00741132
-0.0076399
-0.00786057
-0.00810835
-0.00838258
-0.00864481
-0.00889823
-0.00914007
-0.00934637
-0.00953857
-0.00975301
-0.00997428
-0.0101747
-0.0103649
-0.0105638
-0.01078
-0.0110078
-0.011239
-0.0114813
-0.0117251
-0.0119612
-0.0121958
-0.012433
-0.0126694
-0.0129113
-0.0131637
-0.0134221
-0.0136836
-0.0139549
-0.0142292
-0.0144996
-0.014774
-0.0150585
-0.0153485
-0.0156342
-0.0159246
-0.0162204
-0.01652
-0.0168303
-0.0171454
-0.0174513
-0.0177598
-0.0180774
-0.0184125
-0.0187566
-0.0190847
-0.0194128
-0.019762
-0.0200985
-0.0204099
-0.0207429
-0.0211026
-0.0214614
-0.0218144
-0.0221709
-0.0225307
-0.0228875
-0.0232558
-0.0236317
-0.0240208
-0.0244146
-0.0248119
-0.0252178
-0.0256188
-0.0260335
-0.0264432
-0.0268625
-0.0272874
-0.0277138
-0.028153
-0.0285913
-0.0290412
-0.0294802
-0.0299056
-0.0303405
0.020934
0.0138935
0.00389895
-0.00336866
-0.00597857
-0.00567422
-0.00501436
-0.00486776
-0.00503912
-0.00522785
-0.00534165
-0.00537107
-0.00536036
-0.00540963
-0.00554744
-0.00573622
-0.00593653
-0.00609839
-0.00621977
-0.00635698
-0.00653103
-0.00672087
-0.00689665
-0.00704366
-0.00720104
-0.00740927
-0.00763804
-0.00785883
-0.0081067
-0.00838108
-0.00864342
-0.00889692
-0.00913888
-0.00934526
-0.0095375
-0.00975201
-0.00997337
-0.0101738
-0.0103641
-0.010563
-0.0107793
-0.0110072
-0.0112383
-0.0114807
-0.0117245
-0.0119606
-0.0121953
-0.0124325
-0.0126689
-0.0129108
-0.0131632
-0.0134217
-0.0136832
-0.0139545
-0.0142289
-0.0144993
-0.0147737
-0.0150582
-0.0153482
-0.0156339
-0.0159243
-0.0162201
-0.0165198
-0.0168301
-0.0171451
-0.0174511
-0.0177596
-0.0180772
-0.0184123
-0.0187564
-0.0190846
-0.0194127
-0.0197619
-0.0200984
-0.0204098
-0.0207428
-0.0211025
-0.0214613
-0.0218143
-0.0221709
-0.0225306
-0.0228875
-0.0232558
-0.0236316
-0.0240207
-0.0244146
-0.0248119
-0.0252178
-0.0256187
-0.0260334
-0.0264432
-0.0268625
-0.0272873
-0.0277138
-0.028153
-0.0285913
-0.0290411
-0.0294802
-0.0299056
-0.0303404
0.0197848
0.0137501
0.00408634
-0.00309984
-0.0058217
-0.00561564
-0.0049857
-0.00484529
-0.00502083
-0.00521371
-0.00533111
-0.00536338
-0.00535457
-0.00540492
-0.00554318
-0.00573218
-0.00593283
-0.00609514
-0.00621685
-0.0063543
-0.00652851
-0.0067185
-0.00689445
-0.00704158
-0.00719905
-0.00740742
-0.00763635
-0.00785721
-0.0081052
-0.00837976
-0.00864221
-0.00889579
-0.00913783
-0.00934427
-0.00953653
-0.00975111
-0.00997257
-0.0101731
-0.0103634
-0.0105623
-0.0107787
-0.0110066
-0.0112378
-0.0114802
-0.0117241
-0.0119602
-0.0121949
-0.0124321
-0.0126685
-0.0129104
-0.0131629
-0.0134214
-0.0136829
-0.0139542
-0.0142285
-0.014499
-0.0147734
-0.0150579
-0.0153479
-0.0156337
-0.0159241
-0.0162199
-0.0165195
-0.0168298
-0.017145
-0.0174509
-0.0177594
-0.018077
-0.0184121
-0.0187563
-0.0190845
-0.0194125
-0.0197618
-0.0200983
-0.0204097
-0.0207427
-0.0211024
-0.0214613
-0.0218143
-0.0221708
-0.0225306
-0.0228874
-0.0232558
-0.0236316
-0.0240207
-0.0244146
-0.0248119
-0.0252178
-0.0256187
-0.0260334
-0.0264432
-0.0268625
-0.0272873
-0.0277138
-0.028153
-0.0285913
-0.0290411
-0.0294802
-0.0299056
-0.0303405
0.0187387
0.01358
0.00430808
-0.00277023
-0.00561192
-0.00553491
-0.00494474
-0.00481056
-0.0049909
-0.00518994
-0.00531313
-0.00535062
-0.00534615
-0.00539924
-0.00553848
-0.0057274
-0.00592805
-0.00609093
-0.00621348
-0.00635155
-0.00652595
-0.00671594
-0.00689201
-0.00703934
-0.00719693
-0.00740538
-0.00763436
-0.0078553
-0.00810347
-0.00837829
-0.00864089
-0.00889454
-0.00913667
-0.00934316
-0.00953547
-0.00975013
-0.00997166
-0.0101722
-0.0103626
-0.0105616
-0.010778
-0.0110059
-0.0112372
-0.0114797
-0.0117236
-0.0119597
-0.0121944
-0.0124317
-0.0126681
-0.01291
-0.0131625
-0.013421
-0.0136825
-0.0139539
-0.0142282
-0.0144987
-0.0147731
-0.0150576
-0.0153476
-0.0156334
-0.0159238
-0.0162196
-0.0165193
-0.0168296
-0.0171447
-0.0174507
-0.0177592
-0.0180769
-0.018412
-0.0187561
-0.0190843
-0.0194124
-0.0197617
-0.0200982
-0.0204096
-0.0207426
-0.0211023
-0.0214612
-0.0218142
-0.0221708
-0.0225305
-0.0228874
-0.0232557
-0.0236315
-0.0240207
-0.0244145
-0.0248118
-0.0252178
-0.0256187
-0.0260334
-0.0264431
-0.0268625
-0.0272873
-0.0277138
-0.028153
-0.0285913
-0.0290411
-0.0294802
-0.0299056
-0.0303406
0.0176981
0.0133482
0.00452527
-0.00242646
-0.00538275
-0.00544379
-0.00489766
-0.00476707
-0.00495038
-0.00515606
-0.00528643
-0.00533118
-0.0053336
-0.00539158
-0.00553271
-0.00572139
-0.00592154
-0.00608499
-0.00620905
-0.00634839
-0.00652313
-0.00671295
-0.00688912
-0.00703687
-0.00719473
-0.0074031
-0.00763192
-0.00785284
-0.00810124
-0.00837639
-0.00863921
-0.00889294
-0.00913514
-0.00934174
-0.00953418
-0.00974893
-0.00997051
-0.0101711
-0.0103616
-0.0105606
-0.0107771
-0.0110051
-0.0112365
-0.011479
-0.011723
-0.0119591
-0.0121939
-0.0124312
-0.0126677
-0.0129096
-0.013162
-0.0134206
-0.0136821
-0.0139535
-0.0142279
-0.0144983
-0.0147727
-0.0150573
-0.0153473
-0.0156331
-0.0159235
-0.0162194
-0.016519
-0.0168294
-0.0171445
-0.0174505
-0.017759
-0.0180766
-0.0184118
-0.018756
-0.0190842
-0.0194123
-0.0197616
-0.0200981
-0.0204095
-0.0207425
-0.0211022
-0.0214611
-0.0218141
-0.0221707
-0.0225305
-0.0228873
-0.0232557
-0.0236315
-0.0240206
-0.0244145
-0.0248118
-0.0252177
-0.0256187
-0.0260334
-0.0264431
-0.0268625
-0.0272873
-0.0277138
-0.028153
-0.0285913
-0.0290411
-0.0294802
-0.0299057
-0.0303407
0.0166679
0.0130617
0.00473263
-0.00207944
-0.00514389
-0.00534783
-0.00485003
-0.00472081
-0.00490442
-0.00511598
-0.00525369
-0.00530656
-0.00531744
-0.00538182
-0.00552566
-0.00571405
-0.00591322
-0.00607719
-0.0062033
-0.00634453
-0.00651982
-0.00670936
-0.00688566
-0.0070342
-0.0071926
-0.00740077
-0.00762914
-0.0078499
-0.00809848
-0.00837394
-0.00863698
-0.00889073
-0.00913296
-0.00933982
-0.00953256
-0.00974744
-0.00996903
-0.0101697
-0.0103602
-0.0105594
-0.0107759
-0.0110041
-0.0112355
-0.0114781
-0.0117222
-0.0119584
-0.0121932
-0.0124306
-0.0126671
-0.0129091
-0.0131615
-0.0134201
-0.0136816
-0.0139531
-0.0142275
-0.0144979
-0.0147724
-0.0150569
-0.0153469
-0.0156327
-0.0159232
-0.016219
-0.0165187
-0.016829
-0.0171442
-0.0174502
-0.0177587
-0.0180764
-0.0184115
-0.0187557
-0.019084
-0.0194121
-0.0197614
-0.0200979
-0.0204093
-0.0207424
-0.0211021
-0.021461
-0.021814
-0.0221706
-0.0225304
-0.0228872
-0.0232556
-0.0236314
-0.0240206
-0.0244145
-0.0248118
-0.0252177
-0.0256186
-0.0260334
-0.0264431
-0.0268625
-0.0272873
-0.0277137
-0.028153
-0.0285913
-0.0290411
-0.0294803
-0.0299057
-0.0303408
0.0156612
0.0127291
0.00492724
-0.00173175
-0.00489621
-0.00524696
-0.00480287
-0.00467403
-0.00485555
-0.00507227
-0.00521747
-0.00527889
-0.00529894
-0.00537048
-0.00551748
-0.00570557
-0.00590352
-0.00606796
-0.00619643
-0.00633988
-0.00651581
-0.006705
-0.00688153
-0.00703129
-0.00719059
-0.00739851
-0.00762627
-0.00784678
-0.00809541
-0.00837108
-0.00863422
-0.00888777
-0.00912988
-0.00933711
-0.00953041
-0.00974553
-0.00996713
-0.0101679
-0.0103586
-0.0105578
-0.0107744
-0.0110027
-0.0112343
-0.011477
-0.0117211
-0.0119575
-0.0121924
-0.0124299
-0.0126665
-0.0129084
-0.0131609
-0.0134195
-0.0136811
-0.0139526
-0.014227
-0.0144975
-0.0147719
-0.0150564
-0.0153465
-0.0156323
-0.0159228
-0.0162186
-0.0165183
-0.0168286
-0.0171438
-0.0174498
-0.0177584
-0.0180761
-0.0184111
-0.0187554
-0.0190837
-0.0194118
-0.0197612
-0.0200977
-0.0204091
-0.0207421
-0.0211019
-0.0214608
-0.0218139
-0.0221705
-0.0225303
-0.0228871
-0.0232555
-0.0236313
-0.0240205
-0.0244144
-0.0248117
-0.0252177
-0.0256186
-0.0260333
-0.0264431
-0.0268624
-0.0272873
-0.0277137
-0.028153
-0.0285913
-0.0290411
-0.0294803
-0.0299058
-0.030341
0.0146875
0.0123538
0.00510359
-0.00138548
-0.00463909
-0.00513961
-0.00475583
-0.0046275
-0.00480471
-0.00502586
-0.00517884
-0.00524922
-0.00527885
-0.00535794
-0.00550839
-0.00569627
-0.00589294
-0.00605785
-0.00618879
-0.00633457
-0.00651111
-0.00669987
-0.00687674
-0.00702807
-0.00718858
-0.00739632
-0.00762344
-0.00784375
-0.00809242
-0.00836818
-0.00863122
-0.00888418
-0.00912583
-0.00933346
-0.00952752
-0.009743
-0.00996467
-0.0101657
-0.0103567
-0.0105561
-0.0107727
-0.011001
-0.0112327
-0.0114756
-0.0117197
-0.0119562
-0.0121914
-0.0124291
-0.0126657
-0.0129077
-0.0131602
-0.0134188
-0.0136805
-0.0139519
-0.0142264
-0.014497
-0.0147714
-0.0150559
-0.0153459
-0.0156317
-0.0159223
-0.0162182
-0.0165178
-0.0168281
-0.0171432
-0.0174493
-0.017758
-0.0180756
-0.0184107
-0.018755
-0.0190833
-0.0194115
-0.0197608
-0.0200974
-0.0204088
-0.0207419
-0.0211017
-0.0214606
-0.0218137
-0.0221703
-0.0225301
-0.0228869
-0.0232553
-0.0236312
-0.0240204
-0.0244143
-0.0248116
-0.0252176
-0.0256185
-0.0260333
-0.026443
-0.0268624
-0.0272872
-0.0277137
-0.0281529
-0.0285912
-0.0290411
-0.0294803
-0.0299059
-0.0303413
0.0137534
0.0119377
0.00525576
-0.00104232
-0.00437137
-0.00502388
-0.00470836
-0.00458195
-0.00475267
-0.00497723
-0.00513824
-0.00521799
-0.00525752
-0.00534445
-0.00549858
-0.0056864
-0.00588181
-0.00604719
-0.00618065
-0.00632877
-0.00650588
-0.00669415
-0.00687142
-0.00702454
-0.00718648
-0.0073941
-0.00762064
-0.0078409
-0.00808973
-0.00836557
-0.00862836
-0.00888033
-0.00912107
-0.00932892
-0.00952381
-0.0097397
-0.00996151
-0.0101629
-0.0103545
-0.0105542
-0.0107708
-0.0109991
-0.0112309
-0.0114738
-0.011718
-0.0119546
-0.01219
-0.012428
-0.0126648
-0.0129068
-0.0131592
-0.0134179
-0.0136796
-0.0139512
-0.0142257
-0.0144963
-0.0147708
-0.0150553
-0.0153452
-0.015631
-0.0159216
-0.0162176
-0.0165172
-0.0168274
-0.0171425
-0.0174486
-0.0177574
-0.0180751
-0.0184101
-0.0187543
-0.0190828
-0.019411
-0.0197604
-0.0200969
-0.0204084
-0.0207415
-0.0211013