/*--------------------------------*- C++ -*----------------------------------*\
| =========                 |                                                 |
| \\      /  F ield         | OpenFOAM: The Open Source CFD Toolbox           |
|  \\    /   O peration     | Version:  2106                                  |
|   \\  /    A nd           | Website:  www.openfoam.com                      |
|    \\/     M anipulation  |                                                 |
\*---------------------------------------------------------------------------*/
FoamFile
{
    version     2.0;
    format      ascii;
    arch        "LSB;label=32;scalar=64";
    class       volVectorField;
    location    "0.82";
    object      U;
}
// * * * * * * * * * * * * * * * * * * * * * * * * * * * * * * * * * * * * * //

dimensions      [0 1 -1 0 0 0 0];

internalField   nonuniform List<vector> 
9600
(
(0.875901 0.00309696 0)
(1.13856 -0.00220252 0)
(0.833819 -0.00532791 0)
(1.13376 -0.00166191 0)
(0.893011 0.00233249 0)
(1.07731 -0.00401155 0)
(0.878065 0.00777812 0)
(1.13806 -0.00505156 0)
(0.850933 0.000486589 0)
(1.14934 0.00458453 0)
(0.873341 -0.00222358 0)
(1.12395 0.003377 0)
(0.897134 0.00300334 0)
(1.1137 0.00778004 0)
(0.907425 0.00126268 0)
(1.10305 0.00232836 0)
(0.902499 -0.000965786 0)
(1.10712 -0.00703471 0)
(0.886644 -0.000585064 0)
(1.11032 -0.0137581 0)
(0.885987 0.00293328 0)
(1.12318 -0.00172772 0)
(0.848033 -0.00546415 0)
(1.12025 -0.002023 0)
(0.904912 0.00268838 0)
(1.06553 -0.00365089 0)
(0.891923 0.00692394 0)
(1.11808 -0.00449399 0)
(0.87127 8.06692e-05 0)
(1.12415 0.00452997 0)
(0.904271 -0.00203525 0)
(1.09561 0.00320334 0)
(0.933324 0.00303119 0)
(1.07579 0.00769483 0)
(0.959091 0.00142599 0)
(1.04937 0.00243461 0)
(0.974249 -0.000789376 0)
(1.02779 -0.00726461 0)
(0.985435 0.000191007 0)
(0.997438 -0.0151508 0)
(0.90516 0.00281542 0)
(1.09792 -0.00131456 0)
(0.873925 -0.00562816 0)
(1.09516 -0.00232363 0)
(0.92646 0.00305499 0)
(1.0459 -0.00340086 0)
(0.918167 0.00614155 0)
(1.08776 -0.00408761 0)
(0.908618 -0.000189198 0)
(1.08395 0.00423757 0)
(0.948444 -0.00175236 0)
(1.05558 0.00282141 0)
(0.973668 0.00329866 0)
(1.03754 0.00728053 0)
(0.995541 0.00198686 0)
(1.01694 0.00206656 0)
(1.0016 -0.000385171 0)
(1.00389 -0.00721498 0)
(0.999882 0.000286248 0)
(0.994858 -0.0117721 0)
(0.929815 0.00276757 0)
(1.06824 -0.00101138 0)
(0.906138 -0.00572317 0)
(1.06441 -0.00262074 0)
(0.951177 0.0033603 0)
(1.02504 -0.00325307 0)
(0.948806 0.00562994 0)
(1.057 -0.00392363 0)
(0.948016 -0.000209247 0)
(1.04745 0.00376898 0)
(0.983856 -0.00142107 0)
(1.02692 0.0024906 0)
(0.996928 0.00353029 0)
(1.01935 0.00693553 0)
(1.00826 0.00232928 0)
(1.00877 0.00193403 0)
(1.00556 -8.9734e-06 0)
(1.00073 -0.00721669 0)
(0.997665 0.00066924 0)
(0.994882 -0.0103392 0)
(0.955195 0.00276367 0)
(1.04 -0.000786123 0)
(0.937539 -0.00576505 0)
(1.03546 -0.00290874 0)
(0.972291 0.00361018 0)
(1.00893 -0.00318545 0)
(0.975427 0.00525298 0)
(1.03325 -0.00389204 0)
(0.977264 -0.000115493 0)
(1.02485 0.00333996 0)
(1.00295 -0.00116827 0)
(1.01431 0.00231405 0)
(1.00653 0.00362907 0)
(1.01473 0.00672429 0)
(1.01212 0.00258916 0)
(1.00808 0.00194473 0)
(1.00639 0.000305898 0)
(0.999746 -0.00697858 0)
(0.996166 0.000775319 0)
(0.992659 -0.00924009 0)
(0.976901 0.00278565 0)
(1.01804 -0.000619847 0)
(0.962803 -0.00577381 0)
(1.01374 -0.00314182 0)
(0.986264 0.00377474 0)
(0.999698 -0.00319759 0)
(0.993759 0.00495726 0)
(1.01841 -0.00388256 0)
(0.993593 -3.47107e-05 0)
(1.01426 0.00302841 0)
(1.0098 -0.00102634 0)
(1.01038 0.00222695 0)
(1.01007 0.00364609 0)
(1.0143 0.00657107 0)
(1.01349 0.00283266 0)
(1.00823 0.00199451 0)
(1.00656 0.00064235 0)
(0.999228 -0.00661581 0)
(0.99486 0.000888955 0)
(0.991141 -0.00800783 0)
(0.992298 0.0028141 0)
(1.00443 -0.000492773 0)
(0.980141 -0.00576168 0)
(1.00064 -0.00329936 0)
(0.99342 0.0038444 0)
(0.995932 -0.00327197 0)
(1.00386 0.00472853 0)
(1.01031 -0.00384667 0)
(1.00028 -1.88437e-06 0)
(1.00952 0.0028137 0)
(1.01035 -0.000945392 0)
(1.00847 0.00214495 0)
(1.01064 0.00362339 0)
(1.01374 0.00643498 0)
(1.01306 0.00307756 0)
(1.00774 0.00207078 0)
(1.00587 0.000992796 0)
(0.998892 -0.0061617 0)
(0.993709 0.000992211 0)
(0.99026 -0.00671054 0)
(1.00105 0.00283221 0)
(0.998253 -0.000390301 0)
(0.990567 -0.00573496 0)
(0.994382 -0.00338502 0)
(0.996133 0.00384281 0)
(0.995092 -0.00338302 0)
(1.00788 0.00454739 0)
(1.00607 -0.00377277 0)
(1.00165 3.12299e-06 0)
(1.00648 0.00266096 0)
(1.00836 -0.000884208 0)
(1.00612 0.00204069 0)
(1.0091 0.00358417 0)
(1.01188 0.00630662 0)
(1.01114 0.0033217 0)
(1.00645 0.00215748 0)
(1.0047 0.00131295 0)
(0.998575 -0.00563815 0)
(0.99307 0.00106521 0)
(0.989939 -0.00540873 0)
(1.00455 0.00283275 0)
(0.997004 -0.000308337 0)
(0.99619 -0.00569256 0)
(0.992171 -0.00341433 0)
(0.996785 0.00380113 0)
(0.995358 -0.00350517 0)
(1.00812 0.00439823 0)
(1.00372 -0.00366841 0)
(1.00071 4.88459e-06 0)
(1.00381 0.00254639 0)
(1.00566 -0.000825499 0)
(1.00326 0.00193 0)
(1.00623 0.00353883 0)
(1.00901 0.00617921 0)
(1.00848 0.00353809 0)
(1.00473 0.00224108 0)
(1.00348 0.00156628 0)
(0.998363 -0.00506795 0)
(0.992981 0.00109001 0)
(0.990169 -0.00414847 0)
(1.00485 0.00281705 0)
(0.99816 -0.000247901 0)
(0.99895 -0.00563081 0)
(0.991809 -0.00340635 0)
(0.996839 0.00374069 0)
(0.995897 -0.00361446 0)
(1.00641 0.00427076 0)
(1.00231 -0.00354928 0)
(0.999083 1.70146e-05 0)
(1.00146 0.00245652 0)
(1.00313 -0.000763022 0)
(1.00043 0.00183184 0)
(1.003 0.00349054 0)
(1.00589 0.00604348 0)
(1.00582 0.00370982 0)
(1.00308 0.0023039 0)
(1.00248 0.00174879 0)
(0.998315 -0.00448104 0)
(0.99328 0.00108746 0)
(0.99078 -0.00295723 0)
(1.00369 0.00279008 0)
(1.00003 -0.000209287 0)
(1.00017 -0.00554787 0)
(0.992074 -0.00337762 0)
(0.996904 0.00367188 0)
(0.996436 -0.00369328 0)
(1.00399 0.00415663 0)
(1.00138 -0.00342841 0)
(0.99749 4.19448e-05 0)
(0.999597 0.00238263 0)
(1.00115 -0.000695481 0)
(0.998077 0.00175509 0)
(1.00014 0.00344052 0)
(1.00317 0.00589619 0)
(1.00363 0.00382585 0)
(1.00178 0.00234665 0)
(1.00175 0.00185503 0)
(0.998389 -0.00388802 0)
(0.99376 0.0010665 0)
(0.991534 -0.00186263 0)
(1.00218 0.00275667 0)
(1.00178 -0.000190415 0)
(1.00063 -0.00544476 0)
(0.992441 -0.00333947 0)
(0.997106 0.00359825 0)
(0.996901 -0.00373362 0)
(1.00163 0.00404997 0)
(1.0007 -0.00331285 0)
(0.996227 7.57628e-05 0)
(0.998269 0.00231824 0)
(0.999805 -0.000624892 0)
(0.996367 0.00170362 0)
(0.998007 0.00338783 0)
(1.00114 0.00573954 0)
(1.00207 0.00387953 0)
(1.00088 0.00237753 0)
(1.00125 0.00189732 0)
(0.998503 -0.00330258 0)
(0.994253 0.00105075 0)
(0.99225 -0.000883042 0)
(1.00087 0.00272 0)
(1.00311 -0.000187867 0)
(1.00076 -0.00532407 0)
(0.992739 -0.00329835 0)
(0.997383 0.00352023 0)
(0.997273 -0.00373543 0)
(0.999682 0.00394726 0)
(1.00019 -0.00320419 0)
(0.995367 0.000111716 0)
(0.997399 0.00226112 0)
(0.999001 -0.000556106 0)
(0.99526 0.0016805 0)
(0.996593 0.0033257 0)
(0.999781 0.00557858 0)
(1.00104 0.00387876 0)
(1.00029 0.00240408 0)
(1.00089 0.00191117 0)
(0.998588 -0.00273515 0)
(0.994665 0.00105469 0)
(0.992837 -2.93662e-05 0)
(0.999896 0.00268179 0)
(1.00402 -0.000198206 0)
(1.00078 -0.00518878 0)
(0.992943 -0.00325667 0)
(0.99764 0.0034373 0)
(0.997555 -0.00370317 0)
(0.998258 0.00384573 0)
(0.999783 -0.00310049 0)
(0.99487 0.000143445 0)
(0.996869 0.00221159 0)
(0.998578 -0.000494028 0)
(0.994624 0.00168489 0)
(0.995744 0.00324767 0)
(0.998937 0.00542069 0)
(1.00038 0.00383747 0)
(0.999913 0.00243629 0)
(1.00059 0.00189851 0)
(0.998616 -0.00220147 0)
(0.994973 0.00109404 0)
(0.993283 0.000702122 0)
(0.999268 0.00264292 0)
(1.00455 -0.000218466 0)
(1.00077 -0.00504185 0)
(0.993083 -0.00321416 0)
(0.99782 0.00334894 0)
(0.997756 -0.00364369 0)
(0.997313 0.00374336 0)
(0.999473 -0.00299901 0)
(0.994642 0.000166659 0)
(0.99657 0.00217056 0)
(0.99839 -0.000441439 0)
(0.994313 0.00171339 0)
(0.995283 0.00315654 0)
(0.998434 0.00526776 0)
(0.99994 0.00377221 0)
(0.999647 0.00246465 0)
(1.00032 0.00188332 0)
(0.998598 -0.00171632 0)
(0.995199 0.00118815 0)
(0.993619 0.00131603 0)
(0.998908 0.00260392 0)
(1.0048 -0.000246223 0)
(1.00075 -0.00488618 0)
(0.993197 -0.00316943 0)
(0.997917 0.00325543 0)
(0.997889 -0.00356439 0)
(0.996748 0.00363857 0)
(0.999247 -0.00289589 0)
(0.99459 0.000177054 0)
(0.996414 0.00214261 0)
(0.998327 -0.000404646 0)
(0.99421 0.00176619 0)
(0.995073 0.00305529 0)
(0.99815 0.00512017 0)
(0.999639 0.00369132 0)
(0.999451 0.00248965 0)
(1.00008 0.00190113 0)
(0.998558 -0.00126858 0)
(0.995379 0.00131897 0)
(0.993887 0.00183277 0)
(0.99873 0.00256513 0)
(1.00487 -0.00027971 0)
(1.00073 -0.0047242 0)
(0.993312 -0.0031212 0)
(0.997956 0.00315719 0)
(0.997972 -0.00347048 0)
(0.996451 0.00352859 0)
(0.999091 -0.00278647 0)
(0.994639 0.000172361 0)
(0.99634 0.00212975 0)
(0.998324 -0.000384508 0)
(0.994229 0.00183739 0)
(0.995022 0.00294744 0)
(0.998006 0.00497502 0)
(0.999428 0.00361173 0)
(0.999306 0.00250098 0)
(0.999865 0.00195578 0)
(0.998519 -0.00085057 0)
(0.995547 0.00146798 0)
(0.994125 0.00229391 0)
(0.998663 0.00252678 0)
(1.00483 -0.000317725 0)
(1.00071 -0.00455767 0)
(0.993438 -0.00306861 0)
(0.997967 0.00305456 0)
(0.998023 -0.00336586 0)
(0.996324 0.00341149 0)
(0.998986 -0.00266729 0)
(0.994742 0.000152277 0)
(0.996309 0.00213295 0)
(0.998343 -0.000380727 0)
(0.994314 0.0019214 0)
(0.995067 0.00283423 0)
(0.997952 0.00482837 0)
(0.999278 0.00354477 0)
(0.999201 0.00248547 0)
(0.999686 0.00204214 0)
(0.998492 -0.000454258 0)
(0.995725 0.00162284 0)
(0.994356 0.00270923 0)
(0.998652 0.00248893 0)
(1.00475 -0.000359606 0)
(1.00068 -0.0043877 0)
(0.993575 -0.00301115 0)
(0.997971 0.00294797 0)
(0.998058 -0.00325272 0)
(0.99629 0.00328462 0)
(0.998915 -0.00253487 0)
(0.994873 0.000115109 0)
(0.996299 0.00215301 0)
(0.99837 -0.000392306 0)
(0.994428 0.00201422 0)
(0.995162 0.00272181 0)
(0.997952 0.00467156 0)
(0.999165 0.00349944 0)
(0.999125 0.00245016 0)
(0.999538 0.00214828 0)
(0.998478 -6.07995e-05 0)
(0.995919 0.00176848 0)
(0.994592 0.00307634 0)
(0.998666 0.00245164 0)
(1.00464 -0.000404937 0)
(1.00064 -0.00421512 0)
(0.993717 -0.00294835 0)
(0.997977 0.00283736 0)
(0.99809 -0.00313159 0)
(0.996303 0.00314711 0)
(0.998861 -0.00238864 0)
(0.995019 6.08766e-05 0)
(0.996297 0.00218787 0)
(0.9984 -0.000413359 0)
(0.994554 0.00210306 0)
(0.995278 0.00262717 0)
(0.997985 0.00449122 0)
(0.999074 0.00348961 0)
(0.99907 0.00240604 0)
(0.99942 0.00225346 0)
(0.998475 0.000326768 0)
(0.996127 0.00189893 0)
(0.994838 0.0033937 0)
(0.998689 0.00241488 0)
(1.00452 -0.000453313 0)
(1.0006 -0.00404065 0)
(0.993863 -0.00287951 0)
(0.997987 0.0027217 0)
(0.998123 -0.00300222 0)
(0.996335 0.00299912 0)
(0.998815 -0.00222794 0)
(0.995173 -9.08323e-06 0)
(0.996299 0.00223642 0)
(0.998431 -0.00044421 0)
(0.994686 0.00218358 0)
(0.995398 0.00255418 0)
(0.998036 0.00428243 0)
(0.998996 0.0035116 0)
(0.999027 0.00236601 0)
(0.999327 0.00235096 0)
(0.998479 0.000719083 0)
(0.996348 0.002016 0)
(0.995095 0.00365522 0)
(0.998715 0.00237872 0)
(1.00441 -0.00050497 0)
(1.00056 -0.00386428 0)
(0.99401 -0.00280481 0)
(0.998001 0.00260146 0)
(0.998161 -0.0028648 0)
(0.996375 0.00283847 0)
(0.998772 -0.0020506 0)
(0.995335 -9.41257e-05 0)
(0.996303 0.00229597 0)
(0.998462 -0.000477324 0)
(0.994823 0.00224708 0)
(0.995514 0.00250764 0)
(0.9981 0.00404802 0)
(0.998926 0.00355104 0)
(0.99899 0.00233988 0)
(0.999261 0.00242564 0)
(0.998488 0.0011249 0)
(0.996572 0.0021328 0)
(0.995366 0.00385598 0)
(0.99874 0.00234313 0)
(1.00429 -0.0005598 0)
(1.00053 -0.00368698 0)
(0.994158 -0.00272347 0)
(0.998017 0.00247602 0)
(0.998203 -0.00271762 0)
(0.996421 0.0026652 0)
(0.998729 -0.00185934 0)
(0.995502 -0.000186672 0)
(0.996309 0.00236075 0)
(0.998494 -0.000503197 0)
(0.994965 0.00227978 0)
(0.995621 0.00250166 0)
(0.998174 0.00379088 0)
(0.998865 0.00359643 0)
(0.998956 0.00233993 0)
(0.99922 0.00246347 0)
(0.998503 0.00151784 0)
(0.996793 0.00226868 0)
(0.995649 0.00399472 0)
(0.998765 0.00230816 0)
(1.00417 -0.000617404 0)
(1.00049 -0.00350982 0)
(0.994306 -0.0026337 0)
(0.998035 0.00234338 0)
(0.998248 -0.00255847 0)
(0.996471 0.00247953 0)
(0.998686 -0.0016572 0)
(0.995676 -0.000285748 0)
(0.996318 0.00242465 0)
(0.998525 -0.000515203 0)
(0.995117 0.00227371 0)
(0.99572 0.00253409 0)
(0.998255 0.00352345 0)
(0.998817 0.00364228 0)
(0.998921 0.00237997 0)
(0.999204 0.00248413 0)
(0.998528 0.00188641 0)
(0.997007 0.00243798 0)
(0.995943 0.00407505 0)
(0.998789 0.00227355 0)
(1.00405 -0.000676994 0)
(1.00046 -0.00333404 0)
(0.994455 -0.00253392 0)
(0.998056 0.00220286 0)
(0.998295 -0.00238742 0)
(0.996525 0.00228208 0)
(0.998643 -0.00144712 0)
(0.995856 -0.000391282 0)
(0.996334 0.00248008 0)
(0.998554 -0.000504715 0)
(0.995278 0.00222757 0)
(0.99581 0.00259662 0)
(0.998344 0.00325976 0)
(0.998787 0.00366575 0)
(0.998883 0.00247011 0)
(0.999211 0.00248784 0)
(0.998567 0.00221164 0)
(0.997208 0.00264156 0)
(0.996243 0.00410526 0)
(0.998814 0.002239 0)
(1.00394 -0.000737301 0)
(1.00042 -0.0031609 0)
(0.994603 -0.00242552 0)
(0.99808 0.00205369 0)
(0.998343 -0.0022056 0)
(0.996585 0.00207447 0)
(0.998601 -0.00123242 0)
(0.996039 -0.000493606 0)
(0.996357 0.0025177 0)
(0.99858 -0.000463907 0)
(0.99545 0.00214767 0)
(0.995894 0.0026818 0)
(0.998437 0.00301246 0)
(0.998778 0.00365411 0)
(0.998844 0.00260426 0)
(0.999233 0.00248377 0)
(0.998625 0.0024802 0)
(0.997396 0.00287141 0)
(0.996544 0.00410661 0)
(0.998838 0.0022047 0)
(1.00382 -0.000798597 0)
(1.0004 -0.00299105 0)
(0.994752 -0.00230519 0)
(0.998108 0.00189536 0)
(0.998392 -0.00201213 0)
(0.996652 0.00186077 0)
(0.998561 -0.00102046 0)
(0.996227 -0.000581986 0)
(0.996391 0.00252582 0)
(0.998603 -0.000388317 0)
(0.995634 0.00203923 0)
(0.995974 0.00277628 0)
(0.998529 0.00279946 0)
(0.998795 0.00361265 0)
(0.998805 0.00276679 0)
(0.999267 0.00249395 0)
(0.998706 0.0026928 0)
(0.997572 0.00311931 0)
(0.996836 0.00411238 0)
(0.998864 0.00216985 0)
(1.00371 -0.000859057 0)
(1.00037 -0.00282737 0)
(0.9949 -0.00217035 0)
(0.998141 0.00172691 0)
(0.998441 -0.00180781 0)
(0.996724 0.00164521 0)
(0.998524 -0.000814404 0)
(0.996416 -0.000649761 0)
(0.996436 0.00250259 0)
(0.998623 -0.000283979 0)
(0.995828 0.00190802 0)
(0.996052 0.00286709 0)
(0.99862 0.00263283 0)
(0.998839 0.00354582 0)
(0.998769 0.00294683 0)
(0.999305 0.00252207 0)
(0.99881 0.00284334 0)
(0.99774 0.00336362 0)
(0.997109 0.00414265 0)
(0.998889 0.0021345 0)
(1.0036 -0.000917071 0)
(1.00036 -0.0026738 0)
(0.995047 -0.00202194 0)
(0.998178 0.00154956 0)
(0.998489 -0.00159577 0)
(0.996801 0.00142978 0)
(0.99849 -0.000620436 0)
(0.996605 -0.000694054 0)
(0.996494 0.00244684 0)
(0.998642 -0.000157677 0)
(0.996033 0.00177237 0)
(0.996134 0.00294305 0)
(0.998706 0.00251387 0)
(0.99891 0.00345259 0)
(0.998739 0.00312783 0)
(0.999342 0.00257718 0)
(0.998939 0.00293916 0)
(0.997908 0.0035868 0)
(0.997355 0.00421734 0)
(0.998916 0.00209841 0)
(1.00348 -0.000972093 0)
(1.00035 -0.00253153 0)
(0.995194 -0.001857 0)
(0.998222 0.00136415 0)
(0.998538 -0.00137991 0)
(0.996882 0.00122415 0)
(0.998463 -0.000451193 0)
(0.996792 -0.000708041 0)
(0.996566 0.00235909 0)
(0.998661 -1.66196e-05 0)
(0.996247 0.00164878 0)
(0.996222 0.00300104 0)
(0.998787 0.00243793 0)
(0.999007 0.00334341 0)
(0.998722 0.00329597 0)
(0.999373 0.00266368 0)
(0.999088 0.00299182 0)
(0.998087 0.00376699 0)
(0.997571 0.00434919 0)
(0.998943 0.00205974 0)
(1.00337 -0.00101899 0)
(1.00034 -0.00240408 0)
(0.995338 -0.00167478 0)
(0.998271 0.00117259 0)
(0.998588 -0.00116614 0)
(0.996966 0.00103375 0)
(0.998443 -0.000311046 0)
(0.996976 -0.00068731 0)
(0.996649 0.00225208 0)
(0.998682 0.000134887 0)
(0.996469 0.00154413 0)
(0.996319 0.00304638 0)
(0.998862 0.00240429 0)
(0.999129 0.00322664 0)
(0.998722 0.00344372 0)
(0.999395 0.00277897 0)
(0.999252 0.0030173 0)
(0.998289 0.00388121 0)
(0.997762 0.00451509 0)
(0.998972 0.002019 0)
(1.00326 -0.00105722 0)
(1.00035 -0.00229566 0)
(0.99548 -0.00147447 0)
(0.998327 0.000980674 0)
(0.998641 -0.000956609 0)
(0.997053 0.000866445 0)
(0.998432 -0.000208125 0)
(0.997158 -0.000635559 0)
(0.996745 0.00213373 0)
(0.998707 0.000287183 0)
(0.996698 0.00145977 0)
(0.996426 0.00308091 0)
(0.998929 0.00240858 0)
(0.999272 0.00310479 0)
(0.998744 0.00355825 0)
(0.999408 0.00291444 0)
(0.999421 0.00303714 0)
(0.998519 0.00393223 0)
(0.997943 0.00467514 0)
(0.999001 0.00197572 0)
(1.00316 -0.00108682 0)
(1.00036 -0.00220518 0)
(0.99562 -0.00126004 0)
(0.998387 0.000791493 0)
(0.998698 -0.000763066 0)
(0.997139 0.000735567 0)
(0.998431 -0.000144293 0)
(0.997339 -0.000565074 0)
(0.996851 0.0020153 0)
(0.998737 0.000420375 0)
(0.996933 0.00139632 0)
(0.996547 0.00310609 0)
(0.998989 0.00243628 0)
(0.99943 0.00298233 0)
(0.998793 0.00364259 0)
(0.999414 0.00306211 0)
(0.999587 0.00305805 0)
(0.998777 0.00392967 0)
(0.998134 0.00478497 0)
(0.999031 0.00192818 0)
(1.00305 -0.00110128 0)
(1.00038 -0.00214015 0)
(0.995759 -0.00103414 0)
(0.99845 0.000611162 0)
(0.998761 -0.000593116 0)
(0.997225 0.000646872 0)
(0.99844 -0.000117373 0)
(0.997519 -0.000476424 0)
(0.996966 0.00190978 0)
(0.998772 0.000539202 0)
(0.997176 0.00135134 0)
(0.996681 0.00312868 0)
(0.999041 0.0024802 0)
(0.999602 0.00285512 0)
(0.998871 0.00369434 0)
(0.999415 0.00321875 0)
(0.999743 0.00309008 0)
(0.999055 0.00389864 0)
(0.998352 0.00482703 0)
(0.999063 0.001876 0)
(1.00294 -0.00109925 0)
(1.00042 -0.00209803 0)
(0.995896 -0.000801559 0)
(0.998516 0.000447928 0)
(0.998831 -0.00045269 0)
(0.997309 0.000604559 0)
(0.998459 -0.000119158 0)
(0.997703 -0.000385357 0)
(0.997088 0.00182874 0)
(0.998813 0.0006454 0)
(0.997426 0.00131886 0)
(0.99683 0.00315101 0)
(0.999082 0.00254552 0)
(0.999782 0.00272785 0)
(0.998983 0.00370747 0)
(0.999417 0.00338236 0)
(0.999883 0.00313857 0)
(0.999344 0.00386078 0)
(0.998604 0.00481168 0)
(0.999095 0.00181836 0)
(1.00283 -0.00108039 0)
(1.00046 -0.00207499 0)
(0.996032 -0.000568991 0)
(0.998582 0.000308758 0)
(0.998911 -0.000349732 0)
(0.997391 0.000605708 0)
(0.998484 -0.00013648 0)
(0.997892 -0.000305445 0)
(0.997218 0.00177467 0)
(0.998859 0.000741361 0)
(0.997685 0.00128886 0)
(0.996995 0.00316697 0)
(0.999112 0.00263546 0)
(0.999965 0.00260975 0)
(0.999132 0.00367657 0)
(0.999426 0.0035469 0)
(1 0.00320081 0)
(0.999636 0.00381426 0)
(0.998889 0.0047523 0)
(0.99913 0.00175496 0)
(1.00272 -0.00104241 0)
(1.00052 -0.00207303 0)
(0.99617 -0.000344117 0)
(0.998646 0.000203154 0)
(0.999001 -0.00028571 0)
(0.997472 0.000644202 0)
(0.998514 -0.000157499 0)
(0.998089 -0.000243142 0)
(0.997356 0.00174823 0)
(0.998906 0.000840108 0)
(0.997952 0.00124902 0)
(0.997182 0.00316239 0)
(0.999132 0.00274571 0)
(1.00014 0.00251256 0)
(0.999319 0.00359722 0)
(0.999448 0.0036999 0)
(1.0001 0.00328535 0)
(0.999922 0.0037596 0)
(0.999201 0.00466674 0)
(0.999166 0.00168505 0)
(1.00261 -0.00098521 0)
(1.00059 -0.0020848 0)
(0.99631 -0.000136774 0)
(0.998706 0.000134941 0)
(0.999102 -0.000259707 0)
(0.997553 0.000709182 0)
(0.998545 -0.000159981 0)
(0.998295 -0.000212744 0)
(0.997504 0.00174664 0)
(0.998951 0.000948655 0)
(0.998223 0.00120236 0)
(0.997393 0.00312708 0)
(0.999146 0.00286779 0)
(1.00031 0.00244976 0)
(0.999543 0.00347281 0)
(0.999497 0.00382175 0)
(1.00018 0.00340216 0)
(1.00019 0.00370327 0)
(0.999532 0.00456178 0)
(0.999203 0.00160804 0)
(1.0025 -0.000907545 0)
(1.00067 -0.00210907 0)
(0.996455 4.93644e-05 0)
(0.99876 0.000108466 0)
(0.999214 -0.000265731 0)
(0.997637 0.00078555 0)
(0.998573 -0.000130676 0)
(0.99851 -0.000209019 0)
(0.997665 0.00175316 0)
(0.998992 0.00108021 0)
(0.998491 0.00115586 0)
(0.99763 0.00305156 0)
(0.99916 0.00299189 0)
(1.00045 0.00243645 0)
(0.999798 0.00332262 0)
(0.999584 0.00389152 0)
(1.00024 0.00354853 0)
(1.00044 0.00366553 0)
(0.999877 0.00443723 0)
(0.999242 0.0015252 0)
(1.00238 -0.00080964 0)
(1.00075 -0.00214386 0)
(0.996606 0.000204698 0)
(0.998806 0.000124947 0)
(0.999334 -0.000295814 0)
(0.997727 0.000863939 0)
(0.998596 -6.42759e-05 0)
(0.998731 -0.000218435 0)
(0.997845 0.00175037 0)
(0.999027 0.00123981 0)
(0.99875 0.00112153 0)
(0.997896 0.00293457 0)
(0.999184 0.00309966 0)
(1.00057 0.00246841 0)
(1.00007 0.00316935 0)
(0.999718 0.00389779 0)
(1.00029 0.00369843 0)
(1.00065 0.00366489 0)
(1.00022 0.00430078 0)
(0.999282 0.00143411 0)
(1.00226 -0.000688184 0)
(1.00084 -0.00218373 0)
(0.996766 0.000319655 0)
(0.998843 0.00017802 0)
(0.99946 -0.000339417 0)
(0.997826 0.000932184 0)
(0.99861 4.41147e-05 0)
(0.998954 -0.000236052 0)
(0.998046 0.00172511 0)
(0.999058 0.00141714 0)
(0.99899 0.00111436 0)
(0.998186 0.00278791 0)
(0.999227 0.00318056 0)
(1.00066 0.00253585 0)
(1.00034 0.00303315 0)
(0.9999 0.00384983 0)
(1.00035 0.00382518 0)
(1.00082 0.00370515 0)
(1.00055 0.00417165 0)
(0.999324 0.00133606 0)
(1.00213 -0.000546181 0)
(1.00093 -0.00222254 0)
(0.996936 0.000391924 0)
(0.99887 0.000263969 0)
(0.999588 -0.000386432 0)
(0.997938 0.000978385 0)
(0.998616 0.000187089 0)
(0.999172 -0.000250294 0)
(0.998272 0.001665 0)
(0.999091 0.00159726 0)
(0.999204 0.00114543 0)
(0.998495 0.00262125 0)
(0.999296 0.00322519 0)
(1.00072 0.00262913 0)
(1.00061 0.00292409 0)
(1.00013 0.00376127 0)
(1.00042 0.00391437 0)
(1.00096 0.00377683 0)
(1.00085 0.00407277 0)
(0.999367 0.00123279 0)
(1.002 -0.000388957 0)
(1.00102 -0.0022563 0)
(0.997118 0.00042196 0)
(0.998889 0.000374901 0)
(0.999714 -0.000425015 0)
(0.998063 0.000997247 0)
(0.998613 0.0003588 0)
(0.999377 -0.000241637 0)
(0.998522 0.00156728 0)
(0.999132 0.00176604 0)
(0.999387 0.0012245 0)
(0.998813 0.00245254 0)
(0.999399 0.00322423 0)
(1.00077 0.00273705 0)
(1.00086 0.00284634 0)
(1.00039 0.00363905 0)
(1.00054 0.00395246 0)
(1.00108 0.00385682 0)
(1.00111 0.00401796 0)
(0.999411 0.00112414 0)
(1.00186 -0.000225219 0)
(1.0011 -0.00227306 0)
(0.997313 0.000406821 0)
(0.9989 0.000502031 0)
(0.999833 -0.000446664 0)
(0.998205 0.000984507 0)
(0.998604 0.000549598 0)
(0.999562 -0.00019848 0)
(0.998792 0.00144426 0)
(0.999191 0.00190021 0)
(0.999538 0.0013438 0)
(0.999129 0.00230424 0)
(0.999537 0.00317861 0)
(1.00081 0.00284786 0)
(1.00108 0.00280839 0)
(1.00067 0.00350011 0)
(1.00069 0.00393934 0)
(1.00118 0.00392241 0)
(1.00133 0.0040015 0)
(0.999455 0.00101495 0)
(1.00171 -6.75101e-05 0)
(1.00117 -0.00226399 0)
(0.99752 0.000352804 0)
(0.998907 0.000634772 0)
(0.99994 -0.000443059 0)
(0.998361 0.000936563 0)
(0.998594 0.000743843 0)
(0.999719 -0.000112452 0)
(0.999076 0.00131479 0)
(0.999273 0.00198842 0)
(0.999661 0.00148105 0)
(0.999429 0.00218374 0)
(0.999708 0.00309577 0)
(1.00085 0.00294262 0)
(1.00126 0.00281114 0)
(1.00096 0.00336027 0)
(1.00088 0.00388037 0)
(1.0013 0.00395856 0)
(1.00151 0.00400916 0)
(0.999499 0.000905457 0)
(1.00156 7.94093e-05 0)
(1.00123 -0.00221965 0)
(0.997738 0.000264884 0)
(0.998912 0.000760008 0)
(1.00003 -0.000405138 0)
(0.998531 0.000865428 0)
(0.998588 0.000921464 0)
(0.999845 1.72512e-05 0)
(0.999363 0.00119706 0)
(0.999381 0.00203668 0)
(0.99976 0.00162362 0)
(0.999708 0.00209342 0)
(0.999908 0.00299099 0)
(1.00091 0.00300863 0)
(1.00141 0.00284626 0)
(1.00124 0.00323706 0)
(1.00111 0.00377814 0)
(1.00143 0.00395392 0)
(1.00166 0.00401469 0)
(0.999543 0.000799667 0)
(1.00141 0.000211358 0)
(1.00127 -0.00212918 0)
(0.997964 0.000147441 0)
(0.998921 0.000865546 0)
(1.0001 -0.000332886 0)
(0.998709 0.000786039 0)
(0.998592 0.00107408 0)
(0.999941 0.000181616 0)
(0.999645 0.00110495 0)
(0.999514 0.00204774 0)
(0.999841 0.00175994 0)
(0.999958 0.00203 0)
(1.00013 0.00286812 0)
(1.00098 0.00304367 0)
(1.00152 0.00290088 0)
(1.00149 0.00315244 0)
(1.00135 0.00364927 0)
(1.00159 0.00390688 0)
(1.00181 0.00399942 0)
(0.999586 0.00070005 0)
(1.00125 0.000325498 0)
(1.00129 -0.00199266 0)
(0.998195 1.36154e-05 0)
(0.998938 0.000937574 0)
(1.00015 -0.000227279 0)
(0.998894 0.000707493 0)
(0.99861 0.00118591 0)
(1.00001 0.0003618 0)
(0.999912 0.00104586 0)
(0.999671 0.0020343 0)
(0.99991 0.001886 0)
(1.00018 0.00199672 0)
(1.00036 0.00273041 0)
(1.00108 0.0030441 0)
(1.00162 0.00296024 0)
(1.00171 0.00310365 0)
(1.00161 0.00351758 0)
(1.00178 0.00381846 0)
(1.00196 0.00395414 0)
(0.999629 0.00060728 0)
(1.0011 0.000416832 0)
(1.00129 -0.00182161 0)
(0.998425 -0.000125371 0)
(0.998967 0.000966265 0)
(1.00019 -0.000100228 0)
(0.999076 0.000646259 0)
(0.998644 0.00125587 0)
(1.00006 0.000543906 0)
(1.00016 0.00101441 0)
(0.999846 0.00200685 0)
(0.999972 0.00200104 0)
(1.00035 0.00199509 0)
(1.0006 0.00259218 0)
(1.00121 0.00300461 0)
(1.00171 0.00301621 0)
(1.00189 0.00308484 0)
(1.00184 0.00340387 0)
(1.00198 0.00370275 0)
(1.00212 0.00387292 0)
(0.999671 0.000523751 0)
(1.00095 0.000480328 0)
(1.00127 -0.00162783 0)
(0.998648 -0.000253624 0)
(0.999012 0.000952525 0)
(1.00021 3.36816e-05 0)
(0.999252 0.000614808 0)
(0.998694 0.00130284 0)
(1.00008 0.000708278 0)
(1.00038 0.00100375 0)
(1.00004 0.0019709 0)
(1.00003 0.00210504 0)
(1.00049 0.00201873 0)
(1.00083 0.00246133 0)
(1.00137 0.00292216 0)
(1.0018 0.00304772 0)
(1.00204 0.00309431 0)
(1.00206 0.00331661 0)
(1.00218 0.00358345 0)
(1.0023 0.00377063 0)
(0.999712 0.000449884 0)
(1.00082 0.000520342 0)
(1.00124 -0.00142477 0)
(0.99886 -0.000350921 0)
(0.999074 0.000903412 0)
(1.00023 0.000163723 0)
(0.99942 0.000615368 0)
(0.998756 0.00133881 0)
(1.0001 0.000849947 0)
(1.00059 0.00100511 0)
(1.00024 0.00193179 0)
(1.0001 0.0022016 0)
(1.00059 0.00207165 0)
(1.00104 0.00235113 0)
(1.00156 0.0028051 0)
(1.00192 0.00303653 0)
(1.00216 0.0031136 0)
(1.00223 0.00325768 0)
(1.00238 0.00346645 0)
(1.00247 0.00365406 0)
(0.999752 0.000385555 0)
(1.00069 0.000538558 0)
(1.00119 -0.00122029 0)
(0.999057 -0.00040722 0)
(0.999151 0.000830823 0)
(1.00025 0.000270201 0)
(0.999579 0.000633414 0)
(0.998826 0.00137593 0)
(1.0001 0.000981102 0)
(1.00077 0.00100162 0)
(1.00047 0.00187892 0)
(1.00017 0.00228521 0)
(1.00065 0.0021538 0)
(1.00121 0.00227843 0)
(1.00175 0.00266856 0)
(1.00206 0.00298389 0)
(1.00227 0.0031187 0)
(1.00238 0.00323224 0)
(1.00255 0.00336906 0)
(1.00264 0.00353339 0)
(0.999789 0.000330243 0)
(1.00058 0.000537477 0)
(1.00113 -0.00102291 0)
(0.999236 -0.00042595 0)
(0.999238 0.000753821 0)
(1.00027 0.000342716 0)
(0.999734 0.000654551 0)
(0.998906 0.00142 0)
(1.00009 0.00110942 0)
(1.00092 0.000999492 0)
(1.0007 0.00179937 0)
(1.00027 0.00234908 0)
(1.00068 0.00226173 0)
(1.00134 0.00224906 0)
(1.00195 0.00253118 0)
(1.00223 0.00288302 0)
(1.0024 0.00308759 0)
(1.00249 0.0032139 0)
(1.00269 0.00330182 0)
(1.00279 0.00342043 0)
(0.999826 0.000284825 0)
(1.00047 0.000521218 0)
(1.00106 -0.000839548 0)
(0.999398 -0.000411819 0)
(0.999332 0.000680252 0)
(1.0003 0.000389393 0)
(0.99989 0.00067123 0)
(0.998996 0.00146563 0)
(1.00006 0.00124836 0)
(1.00104 0.00101459 0)
(1.00095 0.00168189 0)
(1.00039 0.00237047 0)
(1.0007 0.00238681 0)
(1.00141 0.00227022 0)
(1.00212 0.00242395 0)
(1.00242 0.0027506 0)
(1.00255 0.00301705 0)
(1.00261 0.00317618 0)
(1.00279 0.00325295 0)
(1.00291 0.00332612 0)
(0.99986 0.000245321 0)
(1.00038 0.000497235 0)
(1.001 -0.000674016 0)
(0.999543 -0.000369156 0)
(0.999427 0.000618634 0)
(1.00033 0.000416608 0)
(1.00005 0.000674072 0)
(0.999104 0.00150074 0)
(1.00003 0.0014007 0)
(1.00112 0.00105983 0)
(1.00121 0.00154513 0)
(1.00057 0.00232857 0)
(1.00071 0.00250095 0)
(1.00143 0.00234208 0)
(1.00225 0.00235616 0)
(1.00261 0.00261432 0)
(1.00272 0.00290695 0)
(1.00273 0.00311062 0)
(1.00289 0.0031995 0)
(1.003 0.00325223 0)
(0.999893 0.000211986 0)
(1.0003 0.000470975 0)
(1.00093 -0.000531305 0)
(0.999673 -0.00030824 0)
(0.999521 0.000581867 0)
(1.00036 0.000432649 0)
(1.00022 0.000653687 0)
(0.999236 0.0015209 0)
(0.99999 0.00154998 0)
(1.00115 0.00114871 0)
(1.00144 0.00142227 0)
(1.0008 0.00221371 0)
(1.00075 0.00257321 0)
(1.00141 0.00244941 0)
(1.00232 0.00233772 0)
(1.00278 0.00249493 0)
(1.00291 0.00277098 0)
(1.00287 0.00301306 0)
(1.00298 0.00312341 0)
(1.00308 0.00317625 0)
(0.999923 0.000182459 0)
(1.00024 0.000447754 0)
(1.00087 -0.000411661 0)
(0.999791 -0.000238112 0)
(0.999613 0.000569959 0)
(1.0004 0.000453043 0)
(1.00039 0.000614039 0)
(0.999397 0.00151529 0)
(0.999962 0.00168673 0)
(1.00114 0.00127551 0)
(1.00164 0.00134214 0)
(1.00106 0.00204205 0)
(1.00085 0.00257527 0)
(1.00138 0.0025549 0)
(1.00234 0.00237544 0)
(1.00291 0.00240877 0)
(1.0031 0.00263071 0)
(1.00303 0.00288909 0)
(1.00308 0.00302773 0)
(1.00315 0.00308433 0)
(0.999951 0.000154097 0)
(1.00018 0.000433054 0)
(1.00081 -0.000310683 0)
(0.999901 -0.00016762 0)
(0.999701 0.00058165 0)
(1.00042 0.000483873 0)
(1.00056 0.000571867 0)
(0.99959 0.0014683 0)
(0.999955 0.00180325 0)
(1.00108 0.00142495 0)
(1.00178 0.00132093 0)
(1.00134 0.00186449 0)
(1.00102 0.00248859 0)
(1.00136 0.00262488 0)
(1.0023 0.00244643 0)
(1.00299 0.0023704 0)
(1.00327 0.00250251 0)
(1.00321 0.00274507 0)
(1.0032 0.00291568 0)
(1.00322 0.00297526 0)
(0.999976 0.000129824 0)
(1.00013 0.00042118 0)
(1.00076 -0.000215928 0)
(1 -0.000107713 0)
(0.999786 0.000610346 0)
(1.00043 0.000542347 0)
(1.00072 0.000535822 0)
(0.999814 0.00137901 0)
(0.999984 0.00187411 0)
(1.00101 0.0015826 0)
(1.00186 0.0013527 0)
(1.0016 0.00172019 0)
(1.00124 0.00233397 0)
(1.00139 0.00262944 0)
(1.00225 0.00251366 0)
(1.003 0.00237773 0)
(1.0034 0.00240939 0)
(1.00339 0.00259497 0)
(1.00333 0.00278627 0)
(1.0033 0.00285805 0)
(0.999998 0.000108648 0)
(1.00009 0.000412021 0)
(1.00071 -0.000123817 0)
(1.0001 -5.61713e-05 0)
(0.999874 0.000636094 0)
(1.00043 0.000630968 0)
(1.00086 0.000524948 0)
(1.00006 0.00126415 0)
(1.00006 0.00188821 0)
(1.00093 0.0017258 0)
(1.00188 0.00143296 0)
(1.00181 0.00162173 0)
(1.00149 0.00216107 0)
(1.00148 0.0025538 0)
(1.0022 0.00254775 0)
(1.00297 0.00240128 0)
(1.00348 0.002361 0)
(1.00355 0.00246272 0)
(1.00347 0.00264007 0)
(1.00338 0.00273827 0)
(1.00002 9.16837e-05 0)
(1.00005 0.000401813 0)
(1.00065 -3.43542e-05 0)
(1.00019 -7.73115e-06 0)
(0.999969 0.000651106 0)
(1.00043 0.000729758 0)
(1.00096 0.000556828 0)
(1.00031 0.00114229 0)
(1.00018 0.00184548 0)
(1.00086 0.00183681 0)
(1.00185 0.00154198 0)
(1.00197 0.00157507 0)
(1.00174 0.00200138 0)
(1.00163 0.00242312 0)
(1.00219 0.00253077 0)
(1.00293 0.00241223 0)
(1.0035 0.00233541 0)