/*--------------------------------*- C++ -*----------------------------------*\
| =========                 |                                                 |
| \\      /  F ield         | OpenFOAM: The Open Source CFD Toolbox           |
|  \\    /   O peration     | Version:  2106                                  |
|   \\  /    A nd           | Website:  www.openfoam.com                      |
|    \\/     M anipulation  |                                                 |
\*---------------------------------------------------------------------------*/
FoamFile
{
    version     2.0;
    format      ascii;
    arch        "LSB;label=32;scalar=64";
    class       volVectorField;
    location    "0.87";
    object      U;
}
// * * * * * * * * * * * * * * * * * * * * * * * * * * * * * * * * * * * * * //

dimensions      [0 1 -1 0 0 0 0];

internalField   nonuniform List<vector> 
9600
(
(0.869135 0.00292877 0)
(1.13415 -0.00259804 0)
(0.82023 -0.00605119 0)
(1.17613 0.00594786 0)
(0.897377 0.00185551 0)
(1.09604 0.00274258 0)
(0.865979 0.00339072 0)
(1.13123 -0.00572072 0)
(0.843108 -0.00175186 0)
(1.14328 -0.00147176 0)
(0.84893 -0.00842446 0)
(1.10253 0.00170676 0)
(0.87035 0.000928175 0)
(1.10333 0.00702839 0)
(0.867064 -0.000900677 0)
(1.10117 0.00146991 0)
(0.86585 -0.00241744 0)
(1.10979 0.000825333 0)
(0.859641 -0.000791627 0)
(1.11706 0.000637041 0)
(0.877968 0.00283043 0)
(1.1212 -0.00206622 0)
(0.83371 -0.00660527 0)
(1.16418 0.00540479 0)
(0.913138 0.00248571 0)
(1.0845 0.00330013 0)
(0.886262 0.00277745 0)
(1.11013 -0.00520659 0)
(0.86859 -0.00226752 0)
(1.11621 -0.00133869 0)
(0.88207 -0.00801143 0)
(1.0756 0.00161391 0)
(0.906299 0.000753195 0)
(1.06667 0.00718232 0)
(0.921378 -0.000878504 0)
(1.0479 0.00150125 0)
(0.939748 -0.0024806 0)
(1.03148 0.000624489 0)
(0.962563 -0.000195775 0)
(1.00113 0.000660132 0)
(0.895116 0.00278427 0)
(1.09927 -0.00163482 0)
(0.86013 -0.00712589 0)
(1.13866 0.00493622 0)
(0.939132 0.00306641 0)
(1.06335 0.00364798 0)
(0.918088 0.00240027 0)
(1.07834 -0.0048461 0)
(0.908666 -0.00250498 0)
(1.07632 -0.00130329 0)
(0.927991 -0.00751172 0)
(1.0357 0.0012918 0)
(0.947808 0.00087143 0)
(1.02471 0.00692272 0)
(0.966073 -0.000442313 0)
(1.00661 0.000964866 0)
(0.978649 -0.00191659 0)
(0.995851 -0.000187992 0)
(0.987423 0.000967967 0)
(0.985357 0.000784543 0)
(0.917743 0.00278971 0)
(1.07282 -0.00133285 0)
(0.894702 -0.00751282 0)
(1.10425 0.00445651 0)
(0.966219 0.00359639 0)
(1.03914 0.00389532 0)
(0.94966 0.00221271 0)
(1.04634 -0.0046848 0)
(0.946861 -0.00253385 0)
(1.03979 -0.00148126 0)
(0.96435 -0.00697551 0)
(1.00499 0.00102407 0)
(0.972197 0.0010456 0)
(1.00059 0.00654614 0)
(0.984436 -0.00011315 0)
(0.992322 0.000678049 0)
(0.987418 -0.00166712 0)
(0.989566 -0.00039524 0)
(0.988067 0.00136215 0)
(0.986997 0.00131768 0)
(0.9418 0.0028291 0)
(1.04699 -0.00113744 0)
(0.929836 -0.00778935 0)
(1.06893 0.00395504 0)
(0.987034 0.00407643 0)
(1.01882 0.00409733 0)
(0.973434 0.0021313 0)
(1.02259 -0.00463508 0)
(0.973128 -0.00248435 0)
(1.01583 -0.00167582 0)
(0.983716 -0.00648402 0)
(0.990299 0.000929933 0)
(0.9817 0.00113582 0)
(0.99187 0.00623303 0)
(0.990173 0.000106599 0)
(0.990571 0.000504412 0)
(0.98965 -0.00143383 0)
(0.989772 -0.000601857 0)
(0.988891 0.00170594 0)
(0.988056 0.00170475 0)
(0.963378 0.00288926 0)
(1.02613 -0.00104162 0)
(0.959157 -0.00796664 0)
(1.03973 0.0035382 0)
(0.998763 0.00446059 0)
(1.00582 0.00424403 0)
(0.988112 0.0021002 0)
(1.00944 -0.00462555 0)
(0.987103 -0.00241191 0)
(1.00384 -0.0017846 0)
(0.991009 -0.00608704 0)
(0.986054 0.000939568 0)
(0.985189 0.00117664 0)
(0.990185 0.00594538 0)
(0.992658 0.000241239 0)
(0.992075 0.000346402 0)
(0.991757 -0.00121779 0)
(0.991269 -0.000755735 0)
(0.990638 0.00199133 0)
(0.98966 0.00213507 0)
(0.979945 0.00295084 0)
(1.01223 -0.00101982 0)
(0.979788 -0.00805674 0)
(1.01978 0.00325329 0)
(1.00286 0.00472321 0)
(0.999471 0.00433296 0)
(0.996226 0.00208242 0)
(1.00423 -0.00461336 0)
(0.99329 -0.00232854 0)
(0.999063 -0.00182248 0)
(0.992954 -0.00576761 0)
(0.985974 0.00096134 0)
(0.987374 0.00119879 0)
(0.991087 0.00564573 0)
(0.994485 0.000329019 0)
(0.994036 0.00018552 0)
(0.993771 -0.00101562 0)
(0.99307 -0.000845193 0)
(0.992314 0.00220716 0)
(0.991442 0.00261084 0)
(0.990845 0.00299692 0)
(1.00477 -0.00103844 0)
(0.992113 -0.00808203 0)
(1.00825 0.00308944 0)
(1.00268 0.00488077 0)
(0.997278 0.00436135 0)
(1.00071 0.00205829 0)
(1.00315 -0.00458324 0)
(0.995945 -0.00223142 0)
(0.997607 -0.00181832 0)
(0.993414 -0.00549345 0)
(0.987076 0.000952053 0)
(0.989403 0.00120691 0)
(0.992855 0.00533653 0)
(0.996106 0.000405348 0)
(0.995723 2.39655e-05 0)
(0.995361 -0.000828577 0)
(0.994554 -0.000864686 0)
(0.993628 0.00236527 0)
(0.992826 0.00311432 0)
(0.996925 0.00302026 0)
(1.00181 -0.00107297 0)
(0.998236 -0.0080622 0)
(1.00233 0.00301413 0)
(1.00117 0.00496606 0)
(0.997038 0.00432826 0)
(1.0033 0.00202601 0)
(1.00353 -0.00453437 0)
(0.997309 -0.00211881 0)
(0.997508 -0.00178769 0)
(0.993797 -0.00524449 0)
(0.988428 0.000907567 0)
(0.991274 0.0012004 0)
(0.994675 0.00502619 0)
(0.997473 0.00048784 0)
(0.996949 -0.000120742 0)
(0.996415 -0.000658267 0)
(0.995475 -0.000811916 0)
(0.994422 0.00247199 0)
(0.993644 0.00362701 0)
(0.999705 0.00302186 0)
(1.00133 -0.00111005 0)
(1.00052 -0.00800646 0)
(0.999344 0.00298902 0)
(0.999897 0.0050049 0)
(0.997531 0.00424438 0)
(1.0047 0.00199016 0)
(1.00415 -0.00447249 0)
(0.998122 -0.00199552 0)
(0.997948 -0.00174189 0)
(0.994421 -0.0050113 0)
(0.989759 0.000838125 0)
(0.992825 0.00118109 0)
(0.996132 0.00472305 0)
(0.998444 0.000579359 0)
(0.997701 -0.000226138 0)
(0.996948 -0.000504183 0)
(0.995856 -0.000688134 0)
(0.994683 0.00253942 0)
(0.99392 0.00412665 0)
(1.00063 0.0030063 0)
(1.0019 -0.00114303 0)
(1.0008 -0.00791794 0)
(0.997605 0.00298055 0)
(0.999268 0.00501124 0)
(0.998239 0.0041289 0)
(1.00528 0.0019569 0)
(1.00459 -0.0044039 0)
(0.998554 -0.00186876 0)
(0.998545 -0.00169177 0)
(0.995253 -0.00478818 0)
(0.990958 0.000758149 0)
(0.993986 0.00115554 0)
(0.997105 0.00443501 0)
(0.998987 0.000674108 0)
(0.998057 -0.00028762 0)
(0.997073 -0.000365171 0)
(0.99584 -0.000502531 0)
(0.994548 0.00258509 0)
(0.993789 0.00458555 0)
(1.00071 0.00297824 0)
(1.00272 -0.00116902 0)
(1.00025 -0.00779877 0)
(0.996379 0.00296755 0)
(0.999153 0.00499076 0)
(0.998955 0.00399888 0)
(1.00532 0.00193052 0)
(1.00483 -0.00433253 0)
(0.9987 -0.00174475 0)
(0.999096 -0.00164551 0)
(0.996158 -0.00457393 0)
(0.991979 0.000682163 0)
(0.994801 0.00112915 0)
(0.997671 0.00416662 0)
(0.999198 0.000764913 0)
(0.998142 -0.00030461 0)
(0.996951 -0.000236897 0)
(0.995605 -0.000269172 0)
(0.994217 0.00263144 0)
(0.99345 0.00498259 0)
(1.00051 0.00294102 0)
(1.00347 -0.00118743 0)
(0.999521 -0.0076517 0)
(0.995443 0.00294024 0)
(0.999304 0.0049464 0)
(0.999583 0.00386525 0)
(1.00511 0.00191275 0)
(1.00489 -0.00425977 0)
(0.998682 -0.00162717 0)
(0.999504 -0.00160732 0)
(0.996998 -0.00437068 0)
(0.992813 0.000621673 0)
(0.995368 0.00110247 0)
(0.997972 0.00392198 0)
(0.999211 0.00084655 0)
(0.998086 -0.000278388 0)
(0.996731 -0.000115681 0)
(0.995307 6.00755e-06 0)
(0.993864 0.0027037 0)
(0.993088 0.00530756 0)
(1.00028 0.00289676 0)
(1.00402 -0.00119887 0)
(0.998892 -0.00748048 0)
(0.994757 0.00289648 0)
(0.99953 0.00488128 0)
(1.00008 0.00373296 0)
(1.00482 0.00190405 0)
(1.00485 -0.00418546 0)
(0.99861 -0.00151755 0)
(0.999757 -0.00157649 0)
(0.997685 -0.00418047 0)
(0.993472 0.000581889 0)
(0.99577 0.00107292 0)
(0.998128 0.00370367 0)
(0.999129 0.000917208 0)
(0.99798 -0.000216852 0)
(0.996513 1.0934e-05 0)
(0.99505 0.000300071 0)
(0.993599 0.00281556 0)
(0.992824 0.00556235 0)
(1.00011 0.00284691 0)
(1.00436 -0.00120457 0)
(0.99846 -0.00728938 0)
(0.994306 0.00283824 0)
(0.999731 0.00479919 0)
(1.00043 0.00360301 0)
(1.00455 0.00190381 0)
(1.00476 -0.0041086 0)
(0.998547 -0.00141682 0)
(0.999884 -0.00154834 0)
(0.998191 -0.00400598 0)
(0.993976 0.000563827 0)
(0.996063 0.00103859 0)
(0.998209 0.00350949 0)
(0.99901 0.000979195 0)
(0.997874 -0.000130206 0)
(0.996348 0.000144292 0)
(0.994884 0.000574566 0)
(0.993466 0.00295984 0)
(0.992709 0.00575647 0)
(1.00001 0.00279264 0)
(1.00453 -0.00120594 0)
(0.998218 -0.00708296 0)
(0.994063 0.00276919 0)
(0.999869 0.00470391 0)
(1.00064 0.00347504 0)
(1.00432 0.00190945 0)
(1.00465 -0.00402753 0)
(0.998515 -0.00132542 0)
(0.999924 -0.00151571 0)
(0.998535 -0.00384949 0)
(0.994352 0.000567095 0)
(0.996276 0.000998413 0)
(0.99825 0.0033351 0)
(0.998879 0.00103861 0)
(0.997788 -2.94124e-05 0)
(0.996248 0.000292561 0)
(0.994821 0.000829645 0)
(0.99347 0.00312324 0)
(0.992743 0.00590566 0)
(0.999959 0.00273476 0)
(1.00457 -0.00120403 0)
(0.998121 -0.0068654 0)
(0.993986 0.00269299 0)
(0.999949 0.00459921 0)
(1.00075 0.00334831 0)
(1.00412 0.00191712 0)
(1.00456 -0.00394 0)
(0.998516 -0.0012452 0)
(0.999911 -0.00147206 0)
(0.998759 -0.00371171 0)
(0.994632 0.000591036 0)
(0.996435 0.000951429 0)
(0.998268 0.00317669 0)
(0.998747 0.00109641 0)
(0.997727 7.18864e-05 0)
(0.99621 0.000475346 0)
(0.994847 0.00107869 0)
(0.993588 0.00329113 0)
(0.992902 0.0060281 0)
(0.999938 0.00267392 0)
(1.00452 -0.00119969 0)
(0.998115 -0.00664009 0)
(0.994029 0.00261273 0)
(0.999991 0.00448778 0)
(1.00077 0.00322259 0)
(1.00394 0.0019242 0)
(1.00447 -0.0038449 0)
(0.998541 -0.00117658 0)
(0.999869 -0.00141411 0)
(0.998906 -0.00359093 0)
(0.99485 0.000630853 0)
(0.996558 0.00090068 0)
(0.998278 0.00302711 0)
(0.99862 0.00116078 0)
(0.99769 0.000167074 0)
(0.996222 0.000685034 0)
(0.994941 0.00132202 0)
(0.993791 0.00344688 0)
(0.993152 0.00613257 0)
(0.999936 0.00261063 0)
(1.00443 -0.00119333 0)
(0.998159 -0.00641026 0)
(0.994149 0.00253101 0)
(1.00001 0.00437076 0)
(1.00075 0.00309901 0)
(1.00376 0.00192755 0)
(1.00439 -0.00373982 0)
(0.998582 -0.00112126 0)
(0.999812 -0.00133847 0)
(0.999012 -0.00348643 0)
(0.995032 0.000681706 0)
(0.996662 0.000852537 0)
(0.998289 0.00287449 0)
(0.998502 0.00123933 0)
(0.997674 0.000253161 0)
(0.996274 0.000904694 0)
(0.99508 0.00156529 0)
(0.994051 0.0035786 0)
(0.993462 0.00621765 0)
(0.999944 0.00254505 0)
(1.0043 -0.0011848 0)
(0.998226 -0.0061782 0)
(0.994314 0.00244907 0)
(1.00003 0.00424938 0)
(1.0007 0.00297839 0)
(1.00359 0.0019244 0)
(1.00432 -0.00362281 0)
(0.998633 -0.00108044 0)
(0.999747 -0.00124474 0)
(0.999098 -0.00339629 0)
(0.995198 0.000739782 0)
(0.996756 0.00081064 0)
(0.998308 0.00271161 0)
(0.998394 0.00133878 0)
(0.997675 0.000333318 0)
(0.996356 0.00111895 0)
(0.995244 0.00182058 0)
(0.994345 0.00368615 0)
(0.993807 0.00627966 0)
(0.999957 0.00247724 0)
(1.00416 -0.00117424 0)
(0.998304 -0.00594451 0)
(0.9945 0.00236851 0)
(1.00004 0.00412339 0)
(1.00065 0.00286233 0)
(1.00341 0.00191308 0)
(1.00424 -0.00349456 0)
(0.99869 -0.00105163 0)
(0.999677 -0.00113539 0)
(0.999178 -0.00331459 0)
(0.995357 0.000795997 0)
(0.996845 0.00078409 0)
(0.998339 0.00253687 0)
(0.998297 0.00146266 0)
(0.997687 0.000415966 0)
(0.996462 0.00131229 0)
(0.995422 0.00209144 0)
(0.994656 0.003775 0)
(0.994171 0.0063105 0)
(0.999972 0.00240726 0)
(1.00402 -0.00116156 0)
(0.998385 -0.00571067 0)
(0.994696 0.0022909 0)
(1.00006 0.00399182 0)
(1.00059 0.00275289 0)
(1.00324 0.00189097 0)
(1.00416 -0.00335254 0)
(0.998752 -0.00103762 0)
(0.999603 -0.00101068 0)
(0.999257 -0.00323778 0)
(0.995518 0.000841909 0)
(0.99693 0.000782951 0)
(0.998383 0.00234777 0)
(0.998212 0.00159383 0)
(0.997705 0.000509536 0)
(0.996589 0.00147539 0)
(0.995608 0.002372 0)
(0.994972 0.00385701 0)
(0.994546 0.00630318 0)
(0.999986 0.00233516 0)
(1.00388 -0.00114643 0)
(0.998469 -0.0054788 0)
(0.994895 0.00221699 0)
(1.00007 0.00385466 0)
(1.00054 0.00265044 0)
(1.00306 0.00185877 0)
(1.00408 -0.00319883 0)
(0.998818 -0.00103432 0)
(0.999527 -0.000876282 0)
(0.999337 -0.00315788 0)
(0.995683 0.000871556 0)
(0.997009 0.000809983 0)
(0.998438 0.00214387 0)
(0.998139 0.00173025 0)
(0.997728 0.000623869 0)
(0.996736 0.00160941 0)
(0.995799 0.00265027 0)
(0.995284 0.00394725 0)
(0.994928 0.00625796 0)
(1 0.00226061 0)
(1.00373 -0.00112777 0)
(0.998554 -0.00525046 0)
(0.995097 0.00214815 0)
(1.00008 0.00371135 0)
(1.00049 0.00255589 0)
(1.00289 0.00181947 0)
(1.004 -0.00303619 0)
(0.998889 -0.00103815 0)
(0.999448 -0.000740579 0)
(0.999417 -0.00306752 0)
(0.995855 0.000878617 0)
(0.997083 0.000863105 0)
(0.998504 0.00193653 0)
(0.998082 0.00186404 0)
(0.99775 0.000769058 0)
(0.996902 0.00172251 0)
(0.995998 0.00291366 0)
(0.995586 0.00405276 0)
(0.995314 0.0061753 0)
(1.00001 0.00218357 0)
(1.00359 -0.00110552 0)
(0.998641 -0.00502636 0)
(0.9953 0.00208601 0)
(1.00009 0.00355913 0)
(1.00044 0.00247076 0)
(1.00272 0.00177004 0)
(1.00391 -0.00286532 0)
(0.998964 -0.00104867 0)
(0.99937 -0.000605042 0)
(0.999495 -0.00296436 0)
(0.996034 0.000862595 0)
(0.99715 0.000938839 0)
(0.998579 0.00173774 0)
(0.998045 0.00198036 0)
(0.997773 0.000948918 0)
(0.997082 0.00182064 0)
(0.996205 0.00315375 0)
(0.995875 0.00417609 0)
(0.995702 0.00605579 0)
(1.00003 0.0021042 0)
(1.00345 -0.00107952 0)
(0.99873 -0.00480758 0)
(0.995504 0.00203124 0)
(1.0001 0.00339953 0)
(1.00039 0.00239259 0)
(1.00255 0.00171198 0)
(1.00382 -0.00269183 0)
(0.999043 -0.00105648 0)
(0.999294 -0.000478697 0)
(0.999571 -0.00284155 0)
(0.996222 0.000828523 0)
(0.997212 0.00103315 0)
(0.998663 0.00155722 0)
(0.99803 0.00208007 0)
(0.997795 0.00115948 0)
(0.997274 0.0019034 0)
(0.996425 0.00336086 0)
(0.996147 0.00432172 0)
(0.996085 0.0059134 0)
(1.00004 0.00202202 0)
(1.0033 -0.00104825 0)
(0.998821 -0.00459612 0)
(0.99571 0.00198507 0)
(1.00011 0.00323335 0)
(1.00035 0.00232174 0)
(1.00239 0.00165135 0)
(1.00373 -0.0025203 0)
(0.999125 -0.00105561 0)
(0.999222 -0.000368876 0)
(0.999643 -0.0027013 0)
(0.996419 0.000778034 0)
(0.99727 0.00113594 0)
(0.998752 0.00140292 0)
(0.99804 0.00216143 0)
(0.997817 0.00139659 0)
(0.997474 0.00197705 0)
(0.99666 0.00352484 0)
(0.996401 0.00449087 0)
(0.996455 0.00577529 0)
(1.00005 0.00193702 0)
(1.00316 -0.00101113 0)
(0.998914 -0.0043939 0)
(0.995916 0.00194867 0)
(1.00012 0.00306076 0)
(1.0003 0.00225548 0)
(1.00223 0.0015912 0)
(1.00363 -0.00235481 0)
(0.99921 -0.00104451 0)
(0.999154 -0.000272381 0)
(0.999712 -0.00255189 0)
(0.996623 0.000723724 0)
(0.997325 0.0012409 0)
(0.998846 0.0012771 0)
(0.998079 0.00221893 0)
(0.99784 0.00165033 0)
(0.997676 0.00204791 0)
(0.996916 0.00363278 0)
(0.996641 0.00467226 0)
(0.996801 0.00567038 0)
(1.00007 0.00184913 0)
(1.00302 -0.00096785 0)
(0.999008 -0.00420279 0)
(0.996122 0.00192268 0)
(1.00013 0.0028851 0)
(1.00026 0.00219088 0)
(1.00207 0.00153528 0)
(1.00354 -0.00220118 0)
(0.999298 -0.00101791 0)
(0.999091 -0.000184862 0)
(0.999779 -0.00239348 0)
(0.996837 0.000677109 0)
(0.99738 0.00134864 0)
(0.998943 0.00118121 0)
(0.998148 0.00225797 0)
(0.997865 0.00191529 0)
(0.997874 0.00212686 0)
(0.997194 0.00367794 0)
(0.996875 0.00483952 0)
(0.99711 0.00562721 0)
(1.00008 0.00175832 0)
(1.00287 -0.00091764 0)
(0.999105 -0.00402303 0)
(0.996328 0.00190413 0)
(1.00015 0.00270913 0)
(1.00021 0.00212818 0)
(1.00191 0.00148489 0)
(1.00345 -0.0020653 0)
(0.999389 -0.000977354 0)
(0.999033 -0.000103269 0)
(0.999844 -0.00223211 0)
(0.99706 0.000633489 0)
(0.997434 0.00146382 0)
(0.99904 0.00111385 0)
(0.998248 0.0022784 0)
(0.997896 0.00218428 0)
(0.99806 0.00222595 0)
(0.997493 0.0036709 0)
(0.997116 0.00496081 0)
(0.997379 0.00566091 0)
(1.00009 0.00166427 0)
(1.00273 -0.000858947 0)
(0.999203 -0.00385634 0)
(0.996533 0.00189396 0)
(1.00016 0.00253531 0)
(1.00018 0.00205817 0)
(1.00175 0.00144773 0)
(1.00336 -0.00194729 0)
(0.999485 -0.000929273 0)
(0.998979 -2.04677e-05 0)
(0.999907 -0.00207705 0)
(0.997294 0.000589421 0)
(0.997491 0.00158758 0)
(0.999135 0.00107885 0)
(0.998379 0.00227319 0)
(0.997938 0.00244699 0)
(0.99823 0.00235334 0)
(0.997805 0.00363324 0)
(0.99738 0.00501125 0)
(0.997613 0.00574454 0)
(1.0001 0.00156688 0)
(1.00259 -0.000792721 0)
(0.999303 -0.00370163 0)
(0.996738 0.00188677 0)
(1.00017 0.00237007 0)
(1.00014 0.00197995 0)
(1.00159 0.00142966 0)
(1.00327 -0.00184657 0)
(0.999586 -0.00087825 0)
(0.99893 6.78511e-05 0)
(0.999967 -0.0019273 0)
(0.997539 0.000546287 0)
(0.997553 0.0017177 0)
(0.999225 0.00108409 0)
(0.99854 0.00224095 0)
(0.997997 0.00269038 0)
(0.998381 0.00251225 0)
(0.998122 0.00359238 0)
(0.997672 0.00499422 0)
(0.997828 0.0058244 0)
(1.00012 0.00146703 0)
(1.00244 -0.000717896 0)
(0.999405 -0.00356139 0)
(0.996941 0.00187846 0)
(1.00018 0.00221602 0)
(1.00012 0.00188797 0)
(1.00143 0.00143164 0)
(1.00318 -0.001759 0)
(0.999694 -0.000830385 0)
(0.998885 0.000169429 0)
(1.00002 -0.00177498 0)
(0.997799 0.000499973 0)
(0.997622 0.00185524 0)
(0.999306 0.00112965 0)
(0.998729 0.00217809 0)
(0.998078 0.00289316 0)
(0.998514 0.00269234 0)
(0.998433 0.0035634 0)
(0.997992 0.00493384 0)
(0.998046 0.00585781 0)
(1.00013 0.00136355 0)
(1.0023 -0.000633582 0)
(0.999507 -0.00343273 0)
(0.997144 0.00186564 0)
(1.00019 0.00208169 0)
(1.00009 0.00177653 0)
(1.00127 0.00145315 0)
(1.00309 -0.00167222 0)
(0.99981 -0.000795489 0)
(0.998845 0.000288002 0)
(1.00007 -0.0016101 0)
(0.998072 0.000446449 0)
(0.997703 0.00199661 0)
(0.999374 0.00121472 0)
(0.998938 0.00209387 0)
(0.99819 0.00304848 0)
(0.998632 0.00288517 0)
(0.998731 0.00354584 0)
(0.998332 0.00485275 0)
(0.998281 0.00583732 0)
(1.00014 0.00125746 0)
(1.00216 -0.000542116 0)
(0.99961 -0.00331007 0)
(0.997347 0.00184116 0)
(1.0002 0.00197742 0)
(1.00008 0.00164736 0)
(1.00112 0.00148886 0)
(1.00299 -0.00158021 0)
(0.999936 -0.000782357 0)
(0.998814 0.000419254 0)
(1.00011 -0.00142639 0)
(0.998359 0.000381804 0)
(0.997801 0.00213036 0)
(0.999425 0.00134052 0)
(0.999162 0.00200298 0)
(0.998336 0.00315242 0)
(0.998741 0.00308473 0)
(0.999012 0.00353659 0)
(0.998687 0.00475554 0)
(0.998539 0.00577857 0)
(1.00016 0.00114957 0)
(1.00201 -0.000444178 0)
(0.999712 -0.00319372 0)
(0.997551 0.00179732 0)
(1.0002 0.00190451 0)
(1.00007 0.0014994 0)
(1.00097 0.00153216 0)
(1.00289 -0.00146974 0)
(1.00007 -0.000795028 0)
(0.998795 0.00055721 0)
(1.00014 -0.00121462 0)
(0.998658 0.000308923 0)
(0.997922 0.00223348 0)
(0.99946 0.00150729 0)
(0.999392 0.00192378 0)
(0.99852 0.00320066 0)
(0.998845 0.00328278 0)
(0.99927 0.00354366 0)
(0.999051 0.00463605 0)
(0.998822 0.00569074 0)
(1.00017 0.00103965 0)
(1.00186 -0.000341763 0)
(0.999811 -0.00307808 0)
(0.997756 0.00172534 0)
(1.0002 0.00186878 0)
(1.00007 0.00133987 0)
(1.00083 0.00157321 0)
(1.00278 -0.00132323 0)
(1.00022 -0.000828488 0)
(0.998793 0.000688675 0)
(1.00016 -0.000967297 0)
(0.998962 0.000240802 0)
(0.998072 0.00229076 0)
(0.999481 0.00170483 0)
(0.999619 0.00187413 0)
(0.998742 0.00319495 0)
(0.998953 0.00346559 0)
(0.999499 0.00358329 0)
(0.999417 0.00450308 0)
(0.999134 0.0055726 0)
(1.00018 0.000929643 0)
(1.00172 -0.000238057 0)
(0.999906 -0.00295876 0)
(0.997965 0.00162395 0)
(1.00019 0.00186576 0)
(1.00007 0.00117805 0)
(1.00071 0.00159896 0)
(1.00266 -0.00113607 0)
(1.00037 -0.000869035 0)
(0.998813 0.000800317 0)
(1.00016 -0.000685831 0)
(0.999264 0.000186662 0)
(0.998253 0.00229654 0)
(0.999495 0.00191044 0)
(0.999831 0.00186104 0)
(0.998999 0.00314135 0)
(0.999076 0.00361332 0)
(0.999696 0.00365673 0)
(0.999774 0.00437347 0)
(0.999477 0.00541357 0)
(1.00019 0.000820215 0)
(1.00157 -0.000135654 0)
(0.999993 -0.00283031 0)
(0.998176 0.00148856 0)
(1.00018 0.00188587 0)
(1.00007 0.00102709 0)
(1.00059 0.00159687 0)
(1.00253 -0.000912802 0)
(1.00052 -0.000901594 0)
(0.998858 0.000872999 0)
(1.00015 -0.000387867 0)
(0.999554 0.000159475 0)
(0.998467 0.00225161 0)
(0.999509 0.00210335 0)
(1.00002 0.00188987 0)
(0.999284 0.00306024 0)
(0.999225 0.00371707 0)
(0.999866 0.003756 0)
(1.00011 0.00427085 0)
(0.999845 0.00521821 0)
(1.0002 0.000712225 0)
(1.00142 -3.6668e-05 0)
(1.00007 -0.00268718 0)
(0.998392 0.0013213 0)
(1.00017 0.00191689 0)
(1.00007 0.000900697 0)
(1.0005 0.00155987 0)
(1.0024 -0.000668312 0)
(1.00066 -0.000907897 0)
(0.99893 0.000903859 0)
(1.00013 -9.60561e-05 0)
(0.999827 0.000171133 0)
(0.99871 0.00216802 0)
(0.999535 0.00226435 0)
(1.00019 0.00195261 0)
(0.999585 0.00296938 0)
(0.999405 0.00377118 0)
(1.00002 0.00386233 0)
(1.0004 0.00421013 0)
(1.00022 0.00501055 0)
(1.00021 0.000607272 0)
(1.00128 5.58245e-05 0)
(1.00014 -0.00252853 0)
(0.99861 0.00112604 0)
(1.00015 0.00194653 0)
(1.00006 0.000814193 0)
(1.00042 0.00149024 0)
(1.00226 -0.000416106 0)
(1.0008 -0.000871427 0)
(0.999027 0.000894279 0)
(1.00011 0.000189685 0)
(1.00007 0.000237062 0)
(0.998976 0.002075 0)
(0.999578 0.00238939 0)
(1.00033 0.00203529 0)
(0.999894 0.00287912 0)
(0.999619 0.00377697 0)
(1.00016 0.00395528 0)
(1.00065 0.004188 0)
(1.0006 0.0048158 0)
(1.00022 0.000507391 0)
(1.00113 0.000140213 0)
(1.00019 -0.0023522 0)
(0.99883 0.000909958 0)
(1.00014 0.00196068 0)
(1.00004 0.000775541 0)
(1.00035 0.00139307 0)
(1.00212 -0.000171146 0)
(1.00092 -0.000782793 0)
(0.999147 0.000859911 0)
(1.00009 0.000450327 0)
(1.0003 0.000345084 0)
(0.999255 0.00198891 0)
(0.999639 0.00248732 0)
(1.00045 0.00213294 0)
(1.0002 0.00279539 0)
(0.999866 0.00374304 0)
(1.00031 0.00402413 0)
(1.00087 0.0041914 0)
(1.00094 0.00465675 0)
(1.00023 0.000413347 0)
(1.00099 0.000213124 0)
(1.00022 -0.00215777 0)
(0.999048 0.000681831 0)
(1.00013 0.00194546 0)
(1.00001 0.000785931 0)
(1.0003 0.00128354 0)
(1.00198 4.69574e-05 0)
(1.00102 -0.000645569 0)
(0.999282 0.000823572 0)
(1.00009 0.000661354 0)
(1.00049 0.000470683 0)
(0.999542 0.00191109 0)
(0.999723 0.00255904 0)
(1.00055 0.00224336 0)
(1.0005 0.00272102 0)
(1.00014 0.00367253 0)
(1.00047 0.00406386 0)
(1.00105 0.00420119 0)
(1.00124 0.00454164 0)
(1.00023 0.000327595 0)
(1.00085 0.000271281 0)
(1.00023 -0.00194594 0)
(0.999261 0.000451702 0)
(1.00014 0.00189489 0)
(0.999974 0.000841265 0)
(1.00026 0.0011743 0)
(1.00186 0.000232771 0)
(1.0011 -0.000472575 0)
(0.999424 0.000795719 0)
(1.00009 0.000824172 0)
(1.00066 0.000607372 0)
(0.999831 0.00184968 0)
(0.999829 0.00260607 0)
(1.00063 0.00236327 0)
(1.00077 0.00266666 0)
(1.00044 0.00356862 0)
(1.00064 0.00407246 0)
(1.00121 0.00420493 0)
(1.00149 0.00445879 0)
(1.00023 0.00025229 0)
(1.00072 0.000308754 0)
(1.00023 -0.00171526 0)
(0.999464 0.000231085 0)
(1.00016 0.00180331 0)
(0.999924 0.000929473 0)
(1.00021 0.00107991 0)
(1.00174 0.000377309 0)
(1.00116 -0.000278636 0)
(0.999566 0.000796609 0)
(1.00011 0.000951408 0)
(1.00081 0.000738054 0)
(1.00012 0.00180234 0)
(0.999957 0.00263175 0)
(1.0007 0.00248237 0)
(1.00101 0.0026429 0)
(1.00075 0.00344278 0)
(1.00084 0.00404547 0)
(1.00136 0.00420297 0)
(1.0017 0.0043923 0)
(1.00024 0.00018797 0)
(1.0006 0.000322652 0)
(1.00021 -0.00146938 0)
(0.999654 3.30408e-05 0)
(1.0002 0.00166821 0)
(0.999868 0.00103599 0)
(1.00017 0.00102144 0)
(1.00164 0.000478701 0)
(1.00122 -8.17113e-05 0)
(0.999702 0.000834571 0)
(1.00014 0.00106194 0)
(1.00095 0.000854753 0)
(1.0004 0.00176123 0)
(1.00011 0.00263927 0)
(1.00075 0.00259284 0)
(1.00121 0.00264945 0)
(1.00107 0.00331378 0)
(1.00107 0.00397613 0)
(1.0015 0.00419049 0)
(1.00187 0.00433324 0)
(1.00024 0.000136237 0)
(1.00049 0.000312119 0)
(1.00017 -0.00121498 0)
(0.999823 -0.000134964 0)
(1.00026 0.00148735 0)
(0.999813 0.00114319 0)
(1.00011 0.00100442 0)
(1.00156 0.000546312 0)
(1.00126 0.000108975 0)
(0.999831 0.00090332 0)
(1.00017 0.00116296 0)
(1.00106 0.000963042 0)
(1.00067 0.00171725 0)
(1.00028 0.00262369 0)
(1.00081 0.00268954 0)
(1.00138 0.00268037 0)
(1.00137 0.00319998 0)
(1.00132 0.00387238 0)
(1.00165 0.00415847 0)
(1.00201 0.0042812 0)
(1.00023 9.76196e-05 0)
(1.00039 0.000277306 0)
(1.00012 -0.00095907 0)
(0.999968 -0.000262324 0)
(1.00034 0.00126746 0)
(0.999767 0.00123323 0)
(1.00005 0.00103455 0)
(1.00148 0.000591482 0)
(1.00131 0.000272188 0)
(0.999952 0.000990728 0)
(1.00019 0.00126883 0)
(1.00116 0.00107028 0)
(1.00094 0.00167647 0)
(1.00048 0.00258419 0)
(1.00087 0.00276412 0)
(1.00151 0.00272658 0)
(1.00165 0.00310555 0)
(1.00159 0.00374539 0)
(1.00181 0.00409769 0)
(1.00214 0.00422716 0)
(1.00023 7.10305e-05 0)
(1.00031 0.000221671 0)
(1.00006 -0.000712672 0)
(1.00008 -0.000336369 0)
(1.00043 0.00102646 0)
(0.999739 0.00129022 0)
(0.999974 0.00110912 0)
(1.0014 0.000634758 0)
(1.00136 0.000388966 0)
(1.00007 0.00107782 0)
(1.00022 0.00138705 0)
(1.00123 0.00118153 0)
(1.00118 0.00164449 0)
(1.0007 0.00252494 0)
(1.00094 0.00280995 0)
(1.00161 0.00277604 0)
(1.00189 0.00303198 0)
(1.00186 0.00360731 0)
(1.00199 0.00401097 0)
(1.00225 0.00416392 0)
(1.00022 5.59809e-05 0)
(1.00024 0.000152024 0)
(1 -0.000489251 0)
(1.00017 -0.000350986 0)
(1.00053 0.000774234 0)
(0.999736 0.00129989 0)
(0.999894 0.00121501 0)
(1.00132 0.000696164 0)
(1.00141 0.000471278 0)
(1.0002 0.00115315 0)
(1.00024 0.0015041 0)
(1.00128 0.00130791 0)
(1.00141 0.00162812 0)
(1.00093 0.00245093 0)
(1.00103 0.00282917 0)
(1.00168 0.00282063 0)
(1.0021 0.00297898 0)
(1.00214 0.00346831 0)
(1.00219 0.00390359 0)
(1.00237 0.00408706 0)
(1.00021 4.99861e-05 0)
(1.00019 7.76727e-05 0)
(0.999944 -0.000297582 0)
(1.00022 -0.000310412 0)
(1.00064 0.000535999 0)
(0.999765 0.00124698 0)
(0.999818 0.00132831 0)
(1.00123 0.000787392 0)
(1.00146 0.000537268 0)
(1.00033 0.00120369 0)
(1.00028 0.00161198 0)
(1.00131 0.00144382 0)
(1.0016 0.00164026 0)
(1.00117 0.00237311 0)
(1.00114 0.0028212 0)
(1.00175 0.00285582 0)
(1.00227 0.00294068 0)
(1.0024 0.00333196 0)
(1.00241 0.00377576 0)
(1.0025 0.00399595 0)
(1.0002 5.0452e-05 0)
(1.00015 4.40716e-06 0)
(0.999895 -0.000143527 0)
(1.00025 -0.000231057 0)
(1.00074 0.000333284 0)
(0.999827 0.00114138 0)
(0.999757 0.00142881 0)
(1.00112 0.000911036 0)
(1.00151 0.000601728 0)
(1.00048 0.00122323 0)
(1.00032 0.00170179 0)
(1.00132 0.00157538 0)
(1.00177 0.00167614 0)
(1.00141 0.00230809 0)
(1.00128 0.0027911 0)
(1.0018 0.00287846 0)
(1.0024 0.00291628 0)
(1.00264 0.00320556 0)
(1.00264 0.00362906 0)
(1.00264 0.00389301 0)
(1.00019 5.58813e-05 0)
(1.00012 -6.29135e-05 0)
(0.999858 -2.77446e-05 0)
(1.00025 -0.000124106 0)
(1.00083 0.000178743 0)
(0.99992 0.00100511 0)
(0.99972 0.00149545 0)
(1.00101 0.0010601 0)
(1.00154 0.000678856 0)
(1.00063 0.00122989 0)
(1.00039 0.00175775 0)
(1.00133 0.00169772 0)
(1.0019 0.00172245 0)
(1.00164 0.00225599 0)
(1.00143 0.00275234 0)
(1.00186 0.00288496 0)
(1.0025 0.00289969 0)
(1.00285 0.00309455 0)
(1.00288 0.00346493 0)
(1.0028 0.00376755 0)
(1.00018 6.3142e-05 0)
(1.0001 -0.00011744 0)
(0.999837 4.94183e-05 0)
(1.00023 -1.66396e-06 0)
(1.0009 8.87948e-05 0)
(1.00004 0.000848097 0)
(0.999718 0.00151202 0)
(1.0009 0.00121058 0)
(1.00155 0.000784841 0)
(1.00078 0.00123747 0)
(1.00047 0.00178962 0)
(1.00133 0.00179687 0)
(1.00201 0.00177644 0)
(1.00186 0.00220774 0)
(1.00159 0.00271001 0)
(1.00192 0.00288299 0)
(1.00257 0.00288555 0)
(1.00303 0.0030052 0)
(1.00311 0.0032997 0)
(1.00298 0.00361352 0)
(1.00016 7.04353e-05 0)
(1.00009 -0.000155977 0)
(0.999834 9.1788e-05 0)
(1.0002 0.000121117 0)
(1.00094 5.67576e-05 0)
(1.00017 0.00069413 0)
(0.999752 0.0014771 0)
(1.0008 0.00134164 0)
(1.00154 0.000914295 0)
(1.00093 0.00125146 0)
(1.00057 0.00180714 0)
(1.00134 0.00186948 0)
(1.00209 0.00182689 0)
(1.00206 0.00216588 0)
(1.00177 0.00265672 0)
(1.00199 0.00288091 0)
(1.00262 0.00287601 0)
(1.00316 0.00293451 0)
(1.00332 0.00314978 0)
(1.00319 0.00343654 0)
(1.00015 7.70191e-05 0)
(1.00008 -0.000178084 0)
(0.999846 0.000110277 0)
(1.00017 0.000231782 0)
(1.00096 6.95851e-05 0)
(1.0003 0.000567259 0)
(0.999824 0.00140214 0)
(1.00072 0.00143956 0)
(1.00151 0.0010497 0)
(1.00106 0.00128898 0)
(1.00068 0.00181221 0)
(1.00135 0.00192823 0)
(1.00216 0.00186573 0)
(1.00225 0.00212699 0)
(1.00197 0.00258798 0)
(1.00208 0.00286539 0)
(1.00265 0.00287414 0)
(1.00325 0.00287617 0)
(1.0035 0.00301918 0)
(1.0034 0.00325586 0)
(1.00014 8.13047e-05 0)
(1.00008 -0.000180366 0)
(0.999871 0.000110587 0)
(1.00014 0.000321266 0)
(1.00096 0.000121325 0)
(1.00043 0.0004749 0)
(0.999925 0.00130938 0)
(1.00067 0.00148781 0)
(1.00148 0.0011747 0)
(1.00118 0.00134452 0)
(1.00079 0.00181769 0)
(1.00137 0.00197126 0)
(1.0022 0.00190411 0)
(1.00243 0.0020848 0)
(1.00217 0.0025095 0)
(1.00218 0.00282714 0)
(1.00267 0.00287667 0)
(1.0033 0.00283804 0)
(1.00364 0.00290793 0)
(1.00359 0.00308863 0)
(1.00013 8.34157e-05 0)
(1.00007 -0.000166453 0)
(0.999906 0.000103352 0)
(1.00012 0.000382607 0)
(1.00095 0.000197988 0)
(1.00055 0.000429054 0)
(1.00005 0.00121031 0)
(1.00064 0.00149379 0)
(1.00146 0.00127242 0)
(1.00128 0.00140121 0)
(1.00091 0.00183372 0)
(1.00139 0.00199875 0)
(1.00223 0.00193841 0)
(1.00258 0.00204491 0)
(1.00239 0.00241425 0)
(1.00232 0.00276383 0)
(1.00269 0.00286523 0)
(1.00331 0.00281999 0)
(1.00373 0.00281958 0)
(1.00376 0.00293839 0)
(1.00012 8.42942e-05 0)
(1.00007 -0.000141722 0)
(0.999945 9.82576e-05 0)
(1.00011 0.000421502 0)
(1.00092 0.000278191 0)
(1.00064 0.000431148 0)
(1.00017 0.00112229 0)
(1.00065 0.00147526 0)
(1.00144 0.0013339 0)
(1.00137 0.0014475 0)
(1.00102 0.00185213 0)
(1.00142 0.00203034 0)
(1.00224 0.00196482 0)
(1.00269 0.0020199 0)
(1.00259 0.00230959 0)
(1.00248 0.0026699 0)
(1.00274 0.00282715 0)
(1.00331 0.00280506 0)
(1.00378 0.00275819 0)
(1.00388 0.00280907 0)
(1.00011 8.50207e-05 0)
(1.00006 -0.000112419 0)
(0.999987 0.000100275 0)
(1.0001 0.000445537 0)
(1.00089 0.000354662 0)
(1.00072 0.000458264 0)
(1.0003 0.00106448 0)
(1.00067 0.00144482 0)
(1.00143 0.00136369 0)
(1.00146 0.0014718 0)
(1.00114 0.00185602 0)
(1.00144 0.00206447 0)
(1.00223 0.00199121 0)
(1.00277 0.00199845 0)
(1.00278 0.00221494 0)
(1.00266 0.0025482 0)
(1.00281 0.00275688 0)
(1.00329 0.00277613 0)
(1.00378 0.0027165 0)
(1.00396 0.00270664 0)
(1.0001 8.56653e-05 0)
(1.00006 -8.02041e-05 0)
(1.00003 0.000110863 0)
(1.00011 0.000462621 0)
(1.00086 0.000422259 0)
(1.00079 0.00049645 0)
(1.00042 0.00103068 0)
(1.0007 0.00141429 0)
(1.00142 0.00137831 0)
(1.00155 0.0014716 0)
(1.00126 0.00184333 0)
(1.00147 0.00208594 0)
(1.00221 0.00203062 0)
(1.00282 0.00198133 0)
(1.00294 0.00213312 0)
(1.00285 0.00241806 0)
(1.00291 0.00265002 0)
(1.0033 0.00271793 0)
(1.00375 0.00267404 0)
(1.00398 0.00262777 0)
(1.00009 8.70215e-05 0)
(1.00005 -4.71826e-05 0)
(1.00007 0.000128113 0)