/*--------------------------------*- C++ -*----------------------------------*\
| =========                 |                                                 |
| \\      /  F ield         | OpenFOAM: The Open Source CFD Toolbox           |
|  \\    /   O peration     | Version:  2106                                  |
|   \\  /    A nd           | Website:  www.openfoam.com                      |
|    \\/     M anipulation  |                                                 |
\*---------------------------------------------------------------------------*/
FoamFile
{
    version     2.0;
    format      ascii;
    arch        "LSB;label=32;scalar=64";
    class       surfaceScalarField;
    location    "0.49";
    object      phi;
}
// * * * * * * * * * * * * * * * * * * * * * * * * * * * * * * * * * * * * * //

dimensions      [0 3 -1 0 0 0 0];

oriented        oriented;

internalField   nonuniform List<scalar> 
19000
(
1.16925e-06
-1.02219e-06
1.17649e-06
8.24447e-07
1.19453e-06
-2.10249e-07
1.19131e-06
1.49121e-07
1.19412e-06
2.5905e-07
1.17105e-06
1.00665e-07
1.19015e-06
-4.89381e-08
1.2006e-06
-2.57668e-07
1.19864e-06
-5.22931e-07
1.21409e-06
-3.63629e-07
1.21822e-06
-1.14524e-07
1.19463e-06
-2.04281e-07
1.19885e-06
3.57521e-07
1.16508e-06
-1.33313e-07
1.18433e-06
4.11103e-07
1.15786e-06
6.18044e-08
1.17269e-06
2.70039e-07
1.15377e-06
7.42582e-08
1.15664e-06
2.78912e-08
5.47537e-08
1.12265e-06
1.22941e-06
-1.02734e-06
1.23972e-06
8.14147e-07
1.25713e-06
-2.27661e-07
1.2555e-06
1.50748e-07
1.2531e-06
2.61451e-07
1.23545e-06
1.18311e-07
1.24727e-06
-6.07614e-08
1.25713e-06
-2.67526e-07
1.25465e-06
-5.20452e-07
1.27074e-06
-3.7972e-07
1.27363e-06
-1.17414e-07
1.2548e-06
-1.85451e-07
1.25097e-06
3.6136e-07
1.22743e-06
-1.09775e-07
1.23024e-06
4.0829e-07
1.22534e-06
6.67086e-08
1.21676e-06
2.78619e-07
1.22682e-06
6.41912e-08
1.20086e-06
5.38506e-08
4.70891e-08
1.20853e-06
1.29004e-06
-1.0346e-06
1.31017e-06
7.94015e-07
1.32083e-06
-2.38317e-07
1.3253e-06
1.46274e-07
1.31674e-06
2.70013e-07
1.30493e-06
1.30122e-07
1.30681e-06
-6.26373e-08
1.31378e-06
-2.74502e-07
1.30859e-06
-5.15255e-07
1.32654e-06
-3.97677e-07
1.32907e-06
-1.19946e-07
1.3181e-06
-1.7448e-07
1.31114e-06
3.68327e-07
1.29566e-06
-9.43024e-08
1.29318e-06
4.10774e-07
1.29499e-06
6.49032e-08
1.28804e-06
2.85562e-07
1.29397e-06
5.8266e-08
1.27881e-06
6.90042e-08
5.74751e-08
1.26843e-06
1.35147e-06
-1.04197e-06
1.38074e-06
7.64747e-07
1.3828e-06
-2.40377e-07
1.39354e-06
1.35534e-07
1.38158e-06
2.81975e-07
1.37319e-06
1.38512e-07
1.36715e-06
-5.6604e-08
1.36834e-06
-2.7569e-07
1.36135e-06
-5.08267e-07
1.3793e-06
-4.15627e-07
1.38445e-06
-1.25095e-07
1.38047e-06
-1.705e-07
1.37751e-06
3.71293e-07
1.36625e-06
-8.30486e-08
1.36684e-06
4.10183e-07
1.36663e-06
6.51151e-08
1.36632e-06
2.85877e-07
1.36383e-06
6.07497e-08
1.3549e-06
7.79349e-08
7.32791e-08
1.3391e-06
1.41392e-06
-1.04753e-06
1.44855e-06
7.30115e-07
1.44295e-06
-2.34776e-07
1.4569e-06
1.21587e-07
1.44522e-06
2.93648e-07
1.43798e-06
1.45756e-07
1.42822e-06
-4.68471e-08
1.42265e-06
-2.70119e-07
1.41529e-06
-5.00903e-07
1.4312e-06
-4.31535e-07
1.43961e-06
-1.33507e-07
1.44153e-06
-1.72423e-07
1.44522e-06
3.67604e-07
1.43722e-06
-7.50493e-08
1.44215e-06
4.05252e-07
1.43913e-06
6.81346e-08
1.44171e-06
2.83299e-07
1.43394e-06
6.85166e-08
1.426e-06
8.58779e-08
9.03164e-08
1.40896e-06
1.47814e-06
-1.05e-06
1.51358e-06
6.94679e-07
1.50323e-06
-2.24425e-07
1.51657e-06
1.08241e-07
1.50766e-06
3.02557e-07
1.501e-06
1.52421e-07
1.49112e-06
-3.69734e-08
1.48057e-06
-2.5956e-07
1.47301e-06
-4.93345e-07
1.48575e-06
-4.44278e-07
1.49565e-06
-1.43407e-07
1.50219e-06
-1.78959e-07
1.51219e-06
3.57599e-07
1.50751e-06
-7.03655e-08
1.51603e-06
3.96733e-07
1.51108e-06
7.30795e-08
1.51457e-06
2.79809e-07
1.50323e-06
7.98546e-08
1.49566e-06
9.34469e-08
1.08367e-07
1.47761e-06
1.54504e-06
-1.04883e-06
1.57778e-06
6.61942e-07
1.56584e-06
-2.12483e-07
1.57612e-06
9.79572e-08
1.57065e-06
3.08029e-07
1.56539e-06
1.57688e-07
1.55732e-06
-2.89034e-08
1.54472e-06
-2.46969e-07
1.53646e-06
-4.85085e-07
1.5455e-06
-4.53312e-07
1.5548e-06
-1.52708e-07
1.56397e-06
-1.8813e-07
1.57871e-06
3.42857e-07
1.57689e-06
-6.85432e-08
1.58824e-06
3.85388e-07
1.58201e-06
7.9305e-08
1.58625e-06
2.75567e-07
1.57236e-06
9.37441e-08
1.56564e-06
1.00172e-07
1.26945e-07
1.54706e-06
1.61544e-06
-1.04413e-06
1.64375e-06
6.33631e-07
1.63236e-06
-2.01093e-07
1.63908e-06
9.12389e-08
1.6366e-06
3.10508e-07
1.63371e-06
1.60576e-07
1.62798e-06
-2.31769e-08
1.61573e-06
-2.34716e-07
1.60643e-06
-4.75784e-07
1.61161e-06
-4.58494e-07
1.619e-06
-1.60098e-07
1.62866e-06
-1.97794e-07
1.64614e-06
3.25381e-07
1.64604e-06
-6.84437e-08
1.65955e-06
3.71877e-07
1.65239e-06
8.64667e-08
1.65783e-06
2.70122e-07
1.64239e-06
1.0919e-07
1.63691e-06
1.05647e-07
1.45155e-07
1.6187e-06
1.6899e-06
-1.03646e-06
1.71358e-06
6.09952e-07
1.70361e-06
-1.91122e-07
1.70761e-06
8.72398e-08
1.70742e-06
3.10694e-07
1.70724e-06
1.60753e-07
1.70362e-06
-1.9554e-08
1.69292e-06
-2.24014e-07
1.68257e-06
-4.65439e-07
1.68419e-06
-4.60106e-07
1.68916e-06
-1.65068e-07
1.69762e-06
-2.06254e-07
1.71602e-06
3.06974e-07
1.71623e-06
-6.86536e-08
1.7313e-06
3.56808e-07
1.72336e-06
9.44058e-08
1.73043e-06
2.6305e-07
1.71437e-06
1.25257e-07
1.71028e-06
1.09737e-07
1.62043e-07
1.69339e-06
1.76874e-06
-1.02648e-06
1.78844e-06
5.90249e-07
1.7799e-06
-1.82575e-07
1.78242e-06
8.47162e-08
1.78396e-06
3.09152e-07
1.78618e-06
1.58541e-07
1.78407e-06
-1.74538e-08
1.7753e-06
-2.15239e-07
1.76405e-06
-4.54193e-07
1.76264e-06
-4.58692e-07
1.76524e-06
-1.67666e-07
1.77146e-06
-2.12477e-07
1.78954e-06
2.88895e-07
1.78881e-06
-6.79193e-08
1.80492e-06
3.40692e-07
1.79627e-06
1.0306e-07
1.80514e-06
2.54177e-07
1.78924e-06
1.4116e-07
1.78636e-06
1.12618e-07
1.7676e-07
1.77164e-06
1.85205e-06
-1.01478e-06
1.86873e-06
5.73565e-07
1.86126e-06
-1.75104e-07
1.8633e-06
8.26787e-08
1.86613e-06
3.0632e-07
1.87014e-06
1.54531e-07
1.86892e-06
-1.62364e-08
1.86207e-06
-2.08386e-07
1.8501e-06
-4.42223e-07
1.84621e-06
-4.54803e-07
1.84679e-06
-1.68247e-07
1.8503e-06
-2.1599e-07
1.86739e-06
2.71814e-07
1.86484e-06
-6.53784e-08
1.88163e-06
3.23904e-07
1.87233e-06
1.12365e-07
1.88289e-06
2.43609e-07
1.86781e-06
1.56245e-07
1.86569e-06
1.14742e-07
1.88618e-07
1.85383e-06
1.9398e-06
-1.00174e-06
1.95442e-06
5.58944e-07
1.94763e-06
-1.68314e-07
1.94973e-06
8.05735e-08
1.95345e-06
3.02603e-07
1.95873e-06
1.49254e-07
1.95786e-06
-1.53678e-08
1.95278e-06
-2.03305e-07
1.94027e-06
-4.29718e-07
1.93434e-06
-4.48867e-07
1.93337e-06
-1.67283e-07
1.93409e-06
-2.1671e-07
1.94998e-06
2.55928e-07
1.94521e-06
-6.06064e-08
1.96242e-06
3.06696e-07
1.9526e-06
1.22186e-07
1.96453e-06
2.3168e-07
1.9508e-06
1.69966e-07
1.94881e-06
1.16736e-07
1.9714e-07
1.94029e-06
2.03198e-06
-9.87527e-07
2.04539e-06
5.45535e-07
2.03893e-06
-1.61854e-07
2.04134e-06
7.81618e-08
2.04554e-06
2.98398e-07
2.05175e-06
1.43048e-07
2.05087e-06
-1.44849e-08
2.04731e-06
-1.99748e-07
2.03447e-06
-4.16879e-07
2.02681e-06
-4.4121e-07
2.02479e-06
-1.65258e-07
2.02289e-06
-2.14814e-07
2.03773e-06
2.41095e-07
2.03068e-06
-5.35632e-08
2.04815e-06
2.89233e-07
2.03803e-06
1.32302e-07
2.05081e-06
2.18896e-07
2.03891e-06
1.81871e-07
2.03638e-06
1.19263e-07
2.02121e-07
2.0314e-06
2.12867e-06
-9.72196e-07
2.1416e-06
5.32607e-07
2.13514e-06
-1.554e-07
2.13797e-06
7.53338e-08
2.1423e-06
2.94065e-07
2.14927e-06
1.36085e-07
2.14817e-06
-1.33884e-08
2.1458e-06
-1.97373e-07
2.13281e-06
-4.03893e-07
2.12372e-06
-4.32117e-07
2.12107e-06
-1.6261e-07
2.11689e-06
-2.10638e-07
2.13101e-06
2.26975e-07
2.12195e-06
-4.44969e-08
2.13955e-06
2.71627e-07
2.12942e-06
1.42433e-07
2.14243e-06
2.05889e-07
2.13267e-06
1.91626e-07
2.1291e-06
1.22842e-07
2.03716e-07
2.1275e-06
2.23005e-06
-9.55759e-07
2.2431e-06
5.1956e-07
2.23634e-06
-1.48645e-07
2.23969e-06
7.19914e-08
2.24386e-06
2.89886e-07
2.2515e-06
1.28445e-07
2.25012e-06
-1.19999e-08
2.24853e-06
-1.95784e-07
2.23553e-06
-3.90898e-07
2.22527e-06
-4.21851e-07
2.22237e-06
-1.59715e-07
2.21633e-06
-2.04593e-07
2.23013e-06
2.13171e-07
2.21946e-06
-3.38316e-08
2.2371e-06
2.5399e-07
2.22727e-06
1.52263e-07
2.23981e-06
1.93347e-07
2.23242e-06
1.99023e-07
2.22759e-06
1.2767e-07
2.02492e-07
2.22881e-06
2.33635e-06
-9.38238e-07
2.34998e-06
5.05929e-07
2.34265e-06
-1.41307e-07
2.34662e-06
6.80204e-08
2.35045e-06
2.86057e-07
2.35871e-06
1.20181e-07
2.35703e-06
-1.0315e-08
2.35585e-06
-1.94604e-07
2.34293e-06
-3.77985e-07
2.33171e-06
-4.10627e-07
2.32887e-06
-1.56871e-07
2.32135e-06
-1.97073e-07
2.33517e-06
1.99342e-07
2.32341e-06
-2.20625e-08
2.34091e-06
2.36483e-07
2.33173e-06
1.61448e-07
2.34313e-06
1.81948e-07
2.33818e-06
2.03964e-07
2.33219e-06
1.33666e-07
1.99251e-07
2.33543e-06
2.44782e-06
-9.19662e-07
2.46236e-06
4.91388e-07
2.45421e-06
-1.33159e-07
2.45892e-06
6.33085e-08
2.46229e-06
2.82689e-07
2.47113e-06
1.11344e-07
2.46918e-06
-8.36683e-09
2.4681e-06
-1.93523e-07
2.45534e-06
-3.65225e-07
2.44329e-06
-3.98578e-07
2.44072e-06
-1.54304e-07
2.43205e-06
-1.88396e-07
2.4461e-06
1.85291e-07
2.43373e-06
-9.69099e-09
2.45086e-06
2.19348e-07
2.44267e-06
1.69637e-07
2.45236e-06
1.72257e-07
2.44984e-06
2.06484e-07
2.44295e-06
1.40562e-07
1.94807e-07
2.44739e-06
2.56469e-06
-9.00061e-07
2.58035e-06
4.75729e-07
2.57123e-06
-1.24035e-07
2.57677e-06
5.77683e-08
2.57962e-06
2.79838e-07
2.58897e-06
1.01997e-07
2.58681e-06
-6.21019e-09
2.58559e-06
-1.92308e-07
2.57307e-06
-3.52699e-07
2.56024e-06
-3.85751e-07
2.5581e-06
-1.52163e-07
2.54851e-06
-1.78805e-07
2.56281e-06
1.70995e-07
2.55032e-06
2.79796e-09
2.56675e-06
2.02917e-07
2.55988e-06
1.76503e-07
2.56753e-06
1.64605e-07
2.5672e-06
2.06814e-07
2.55986e-06
1.47907e-07
1.89898e-07
2.56477e-06
2.68722e-06
-8.79451e-07
2.70412e-06
4.58832e-07
2.69392e-06
-1.13835e-07
2.70034e-06
5.13472e-08
2.70266e-06
2.77518e-07
2.71244e-06
9.22117e-08
2.71015e-06
-3.91916e-09
2.70862e-06
-1.90773e-07
2.69643e-06
-3.40516e-07
2.68281e-06
-3.72127e-07
2.68118e-06
-1.50529e-07
2.67087e-06
-1.68501e-07
2.68527e-06
1.56593e-07
2.67312e-06
1.49519e-08
2.68849e-06
1.8755e-07
2.68319e-06
1.818e-07
2.68874e-06
1.5905e-07
2.69022e-06
2.05339e-07
2.68294e-06
1.55188e-07
1.851e-07
2.68774e-06
2.81565e-06
-8.57836e-07
2.83385e-06
4.40634e-07
2.82252e-06
-1.02506e-07
2.82984e-06
4.40268e-08
2.83165e-06
2.75711e-07
2.84178e-06
8.20805e-08
2.83945e-06
-1.5927e-09
2.83743e-06
-1.88751e-07
2.82573e-06
-3.28811e-07
2.81127e-06
-3.57669e-07
2.81015e-06
-1.49409e-07
2.79934e-06
-1.57693e-07
2.81359e-06
1.42347e-07
2.80218e-06
2.63544e-08
2.81615e-06
1.73584e-07
2.81253e-06
1.85422e-07
2.81619e-06
1.55389e-07
2.81902e-06
2.02511e-07
2.81224e-06
1.61964e-07
1.80777e-07
2.81657e-06
2.95027e-06
-8.35214e-07
2.9698e-06
4.21105e-07
2.95733e-06
-9.00326e-08
2.96554e-06
3.58199e-08
2.96688e-06
2.7437e-07
2.97723e-06
7.17224e-08
2.975e-06
6.40091e-10
2.97232e-06
-1.86071e-07
2.96124e-06
-3.17728e-07
2.94593e-06
-3.42357e-07
2.94525e-06
-1.4873e-07
2.93419e-06
-1.46638e-07
2.94794e-06
1.28605e-07
2.93763e-06
3.6657e-08
2.94998e-06
1.61238e-07
2.94796e-06
1.87437e-07
2.9501e-06
1.53247e-07
2.95387e-06
1.98743e-07
2.9479e-06
1.67932e-07
1.77108e-07
2.95157e-06
3.09138e-06
-8.11585e-07
3.11224e-06
4.00238e-07
3.09864e-06
-7.64257e-08
3.10769e-06
2.67691e-08
3.10864e-06
2.7342e-07
3.11907e-06
6.12899e-08
3.11709e-06
2.61706e-09
3.11358e-06
-1.82561e-07
3.10325e-06
-3.07392e-07
3.08711e-06
-3.26222e-07
3.08672e-06
-1.48331e-07
3.07574e-06
-1.35659e-07
3.08859e-06
1.15747e-07
3.07964e-06
4.56101e-08
3.0903e-06
1.50579e-07
3.08967e-06
1.88063e-07
3.0907e-06
1.5222e-07
3.09511e-06
1.94331e-07
3.09012e-06
1.7293e-07
1.7413e-07
3.09309e-06
3.23928e-06
-7.86954e-07
3.26147e-06
3.78044e-07
3.24677e-06
-6.17243e-08
3.25659e-06
1.69467e-08
3.25726e-06
2.72752e-07
3.26758e-06
5.09751e-08
3.26605e-06
4.14186e-09
3.26154e-06
-1.78053e-07
3.25204e-06
-2.97894e-07
3.23519e-06
-3.09369e-07
3.23483e-06
-1.47968e-07
3.22428e-06
-1.25115e-07
3.2359e-06
1.04132e-07
3.22842e-06
5.30884e-08
3.23746e-06
1.41534e-07
3.23794e-06
1.87583e-07
3.2382e-06
1.51967e-07
3.24309e-06
1.89443e-07
3.23914e-06
1.76877e-07
1.71812e-07
3.24146e-06
3.39431e-06
-7.61334e-07
3.4178e-06
3.54553e-07
3.40207e-06
-4.59951e-08
3.41256e-06
6.45887e-09
3.41309e-06
2.72227e-07
3.42305e-06
4.10146e-08
3.42221e-06
4.98337e-09
3.41654e-06
-1.72387e-07
3.40791e-06
-2.89266e-07
3.39053e-06
-2.91986e-07
3.38988e-06
-1.47315e-07
3.38014e-06
-1.15378e-07
3.39023e-06
9.40468e-08
3.38419e-06
5.9124e-08
3.39181e-06
1.33914e-07
3.39315e-06
1.86247e-07
3.39285e-06
1.52259e-07
3.39811e-06
1.84187e-07
3.3953e-06
1.79691e-07
1.70117e-07
3.39699e-06
3.55682e-06
-7.34747e-07
3.58157e-06
3.29812e-07
3.56491e-06
-2.93382e-08
3.57592e-06
-4.55032e-09
3.57648e-06
2.71664e-07
3.5858e-06
3.1694e-08
3.58591e-06
4.87881e-09
3.57895e-06
-1.65432e-07
3.57114e-06
-2.81459e-07
3.55351e-06
-2.74357e-07
3.55222e-06
-1.46025e-07
3.54357e-06
-1.06728e-07
3.55202e-06
8.55988e-08
3.54721e-06
6.39338e-08
3.55369e-06
1.27438e-07
3.5557e-06
1.84239e-07
3.55499e-06
1.52961e-07
3.56049e-06
1.78686e-07
3.55894e-06
1.81243e-07
1.69017e-07
3.56004e-06
3.72719e-06
-7.07228e-07
3.75311e-06
3.03893e-07
3.73566e-06
-1.18922e-08
3.747e-06
-1.58944e-08
3.74782e-06
2.70848e-07
3.75616e-06
2.33493e-08
3.7575e-06
3.54319e-09
3.74917e-06
-1.57102e-07
3.74204e-06
-2.74325e-07
3.72453e-06
-2.56852e-07
3.72224e-06
-1.43735e-07
3.71483e-06
-9.93219e-08
3.72173e-06
7.87077e-08
3.71779e-06
6.7866e-08
3.72345e-06
1.21784e-07
3.726e-06
1.81683e-07
3.72499e-06
1.53979e-07
3.73058e-06
1.73092e-07
3.73042e-06
1.81405e-07
1.68431e-07
3.731e-06
3.90578e-06
-6.78824e-07
3.93278e-06
2.76893e-07
3.91473e-06
6.1618e-09
3.92618e-06
-2.73442e-08
3.9275e-06
2.69525e-07
3.93451e-06
1.63442e-08
3.93733e-06
7.21987e-10
3.92763e-06
-1.47405e-07
3.92092e-06
-2.67614e-07
3.90395e-06
-2.39883e-07
3.90035e-06
-1.40137e-07
3.89419e-06
-9.31565e-08
3.89977e-06
7.31303e-08
3.89632e-06
7.13139e-08
3.9014e-06
1.16706e-07
3.90446e-06
1.78616e-07
3.90325e-06
1.55191e-07
3.90872e-06
1.67626e-07
3.91004e-06
1.80079e-07
1.68175e-07
3.9103e-06
4.09302e-06
-6.49596e-07
4.12097e-06
2.48941e-07
4.10254e-06
2.45923e-08
4.11382e-06
-3.86241e-08
4.11593e-06
2.67417e-07
4.12124e-06
1.10339e-08
4.12572e-06
-3.75272e-09
4.11479e-06
-1.36483e-07
4.10817e-06
-2.60988e-07
4.09214e-06
-2.23851e-07
4.08703e-06
-1.3503e-07
4.08193e-06
-8.80577e-08
4.08654e-06
6.85233e-08
4.08323e-06
7.46217e-08
4.08784e-06
1.12093e-07
4.0915e-06
1.74961e-07
4.09022e-06
1.56468e-07
4.09532e-06
1.62531e-07
4.09814e-06
1.77258e-07
1.6796e-07
4.09835e-06
4.28933e-06
-6.19624e-07
4.31807e-06
2.20197e-07
4.29955e-06
4.31154e-08
4.31034e-06
-4.94114e-08
4.31352e-06
2.64237e-07
4.31683e-06
7.72556e-09
4.32299e-06
-9.91642e-09
4.31113e-06
-1.24625e-07
4.30419e-06
-2.5404e-07
4.28944e-06
-2.09104e-07
4.28276e-06
-1.28352e-07
4.27843e-06
-8.37271e-08
4.28242e-06
6.45337e-08
4.27902e-06
7.8019e-08
4.28316e-06
1.07954e-07
4.28751e-06
1.70607e-07
4.28633e-06
1.57653e-07
4.29086e-06
1.58003e-07
4.295e-06
1.73115e-07
1.67386e-07
4.29557e-06
4.49515e-06
-5.89003e-07
4.52449e-06
1.90856e-07
4.50621e-06
6.13964e-08
4.51615e-06
-5.93435e-08
4.52068e-06
2.59697e-07
4.52178e-06
6.63027e-09
4.52949e-06
-1.76286e-08
4.51712e-06
-1.12252e-07
4.50941e-06
-2.46332e-07
4.4962e-06
-1.95894e-07
4.48805e-06
-1.202e-07
4.48411e-06
-7.97869e-08
4.48779e-06
6.0856e-08
4.48424e-06
8.15669e-08
4.48781e-06
1.04384e-07
4.4929e-06
1.65515e-07
4.49202e-06
1.58532e-07
4.49585e-06
1.54179e-07
4.501e-06
1.67967e-07
1.66039e-07
4.50234e-06
4.71096e-06
-5.5785e-07
4.74067e-06
1.6115e-07
4.72301e-06
7.90548e-08
4.7317e-06
-6.80304e-08
4.73785e-06
2.53548e-07
4.73666e-06
7.81303e-09
4.74558e-06
-2.65472e-08
4.73321e-06
-9.98799e-08
4.72435e-06
-2.37476e-07
4.71276e-06
-1.84302e-07
4.7034e-06
-1.10833e-07
4.69941e-06
-7.58005e-08
4.70306e-06
5.72103e-08
4.69946e-06
8.51601e-08
4.70227e-06
1.01578e-07
4.70808e-06
1.59701e-07
4.70775e-06
1.58861e-07
4.71083e-06
1.511e-07
4.71656e-06
1.62242e-07
1.63591e-07
4.719e-06
4.93725e-06
-5.26301e-07
4.96705e-06
1.31351e-07
4.95043e-06
9.56691e-08
4.95748e-06
-7.50752e-08
4.96543e-06
2.45595e-07
4.96205e-06
1.11909e-08
4.97168e-06
-3.61738e-08
4.95987e-06
-8.80721e-08
4.94954e-06
-2.2714e-07
4.93952e-06
-1.74282e-07
4.92929e-06
-1.00607e-07
4.92481e-06
-7.13247e-08
4.92863e-06
5.33917e-08
4.9252e-06
8.85909e-08
4.9271e-06
9.96838e-08
4.93349e-06
1.53304e-07
4.93394e-06
1.5841e-07
4.93636e-06
1.48683e-07
4.9422e-06
1.56404e-07
1.59894e-07
4.9459e-06
5.17452e-06
-4.94509e-07
5.20411e-06
1.01766e-07
5.18898e-06
1.10801e-07
5.19402e-06
-8.01155e-08
5.20385e-06
2.3576e-07
5.19853e-06
1.65121e-08
5.20826e-06
-4.59036e-08
5.19755e-06
-7.73592e-08
5.18552e-06
-2.15115e-07
5.1769e-06
-1.65662e-07
5.16621e-06
-8.99146e-08
5.16089e-06
-6.60037e-08
5.16493e-06
4.93523e-08
5.16192e-06
9.15994e-08
5.16289e-06
9.87149e-08
5.16963e-06
1.46565e-07
5.17104e-06
1.57002e-07
5.17298e-06
1.46742e-07
5.17855e-06
1.50835e-07
1.55074e-07
5.18337e-06
5.42333e-06
-4.62649e-07
5.45235e-06
7.27444e-08
5.43914e-06
1.24014e-07
5.44189e-06
-8.28631e-08
5.45355e-06
2.24094e-07
5.44667e-06
2.33956e-08
5.45586e-06
-5.50924e-08
5.44669e-06
-6.81906e-08
5.43293e-06
-2.01361e-07
5.42539e-06
-1.58118e-07
5.41474e-06
-7.92674e-08
5.40822e-06
-5.94803e-08
5.4124e-06
4.51759e-08
5.41012e-06
9.38708e-08
5.41025e-06
9.85902e-08
5.41703e-06
1.39783e-07
5.41947e-06
1.54565e-07
5.42121e-06
1.44997e-07
5.42626e-06
1.45791e-07
1.49478e-07
5.43185e-06
5.68422e-06
-4.30912e-07
5.71229e-06
4.46713e-08
5.70141e-06
1.34902e-07
5.70169e-06
-8.31458e-08
5.71499e-06
2.1079e-07
5.70702e-06
3.13719e-08
5.71506e-06
-6.31352e-08
5.70773e-06
-6.08622e-08
5.69241e-06
-1.86039e-07
5.68545e-06
-1.51162e-07
5.67534e-06
-6.91526e-08
5.66757e-06
-5.17138e-08
5.67155e-06
4.11961e-08
5.67031e-06
9.51159e-08
5.66974e-06
9.91552e-08
5.67629e-06
1.3323e-07
5.67975e-06
1.51114e-07
5.68154e-06
1.43197e-07
5.68602e-06
1.41314e-07
1.43604e-07
5.6919e-06
5.95778e-06
-3.99504e-07
5.98449e-06
1.7967e-08
5.97627e-06
1.43118e-07
5.97407e-06
-8.09397e-08
5.98869e-06
1.96164e-07
5.98015e-06
3.99168e-08
5.98651e-06
-6.95014e-08
5.98113e-06
-5.54833e-08
5.96461e-06
-1.69511e-07
5.95768e-06
-1.44235e-07
5.94844e-06
-5.99133e-08
5.93969e-06
-4.29612e-08
5.94311e-06
3.77781e-08
5.94297e-06
9.5248e-08
5.94196e-06
1.00173e-07
5.94803e-06
1.27155e-07
5.9524e-06
1.46745e-07
5.95448e-06
1.41117e-07
5.95848e-06
1.3731e-07
1.37875e-07
5.96421e-06
6.24462e-06
-3.68639e-07
6.26951e-06
-6.91752e-09
6.26422e-06
1.48403e-07
6.25968e-06
-7.63941e-08
6.27522e-06
1.8062e-07
6.26662e-06
4.85212e-08
6.27093e-06
-7.38089e-08
6.26738e-06
-5.19383e-08
6.25016e-06
-1.52295e-07
6.24273e-06
-1.36801e-07
6.23455e-06
-5.17302e-08
6.22517e-06
-3.35806e-08
6.22779e-06
3.51575e-08
6.22872e-06
9.43197e-08
6.22749e-06
1.01398e-07
6.23289e-06
1.21756e-07
6.23804e-06
1.41597e-07
6.24055e-06
1.38603e-07
6.24426e-06
1.336e-07
1.32529e-07
6.24961e-06
6.54537e-06
-3.38542e-07
6.56795e-06
-2.94999e-08
6.56576e-06
1.50601e-07
6.5592e-06
-6.984e-08
6.57521e-06
1.64614e-07
6.56702e-06
5.67062e-08
6.56908e-06
-7.58628e-08
6.56699e-06
-4.98497e-08
6.54969e-06
-1.34995e-07
6.54134e-06
-1.28448e-07
6.53417e-06
-4.45658e-08
6.52462e-06
-2.40314e-08
6.52629e-06
3.34845e-08
6.52817e-06
9.24486e-08
6.527e-06
1.02563e-07
6.53154e-06
1.17214e-07
6.53726e-06
1.35881e-07
6.54039e-06
1.35469e-07
6.54392e-06
1.30069e-07
1.27567e-07
6.54889e-06
6.86068e-06
-3.09431e-07
6.88045e-06
-4.92744e-08
6.88139e-06
1.49665e-07
6.87334e-06
-6.17883e-08
6.8893e-06
1.48651e-07
6.88196e-06
6.4044e-08
6.88175e-06
-7.56459e-08
6.88059e-06
-4.86956e-08
6.86371e-06
-1.18117e-07
6.85439e-06
-1.1912e-07
6.848e-06
-3.8181e-08
6.83852e-06
-1.45551e-08
6.83934e-06
3.26658e-08
6.842e-06
8.97894e-08
6.84115e-06
1.0342e-07
6.84473e-06
1.13625e-07
6.85073e-06
1.2989e-07
6.85455e-06
1.3164e-07
6.85812e-06
1.26502e-07
1.22965e-07
6.86272e-06
7.19122e-06
-2.81515e-07
7.20768e-06
-6.57365e-08
7.2117e-06
1.45644e-07
7.20279e-06
-5.28761e-08
7.21824e-06
1.33206e-07
7.21204e-06
7.02411e-08
7.20971e-06
-7.33199e-08
7.20898e-06
-4.79617e-08
7.1928e-06
-1.01941e-07
7.18275e-06
-1.09065e-07
7.17686e-06
-3.22972e-08
7.16757e-06
-5.25866e-09
7.16753e-06
3.27021e-08
7.17091e-06
8.64101e-08
7.17057e-06
1.0376e-07
7.1733e-06
1.10892e-07
7.17916e-06
1.24036e-07
7.18366e-06
1.2714e-07
7.18748e-06
1.22678e-07
1.18657e-07
7.19179e-06
7.53769e-06
-2.54979e-07
7.55048e-06
-7.85283e-08
7.55735e-06
1.38773e-07
7.54828e-06
-4.38022e-08
7.56278e-06
1.18705e-07
7.55785e-06
7.51722e-08
7.55377e-06
-6.92411e-08
7.55294e-06
-4.7133e-08
7.53766e-06
-8.66623e-08
7.52709e-06
-9.84896e-08
7.52166e-06
-2.68657e-08
7.51254e-06
3.85324e-09
7.51153e-06
3.3713e-08
7.51552e-06
8.24184e-08
7.51601e-06
1.03279e-07
7.51801e-06
1.08883e-07
7.52339e-06
1.18665e-07
7.52837e-06
1.22155e-07
7.53262e-06
1.18424e-07
1.14473e-07
7.53681e-06
7.90081e-06
-2.29981e-07
7.90983e-06
-8.75406e-08
7.91909e-06
1.29512e-07
7.91053e-06
-3.52432e-08
7.92374e-06
1.05491e-07
7.92e-06
7.89108e-08
7.9147e-06
-6.39431e-08
7.91342e-06
-4.58454e-08
7.89886e-06
-7.21042e-08
7.88805e-06
-8.76781e-08
7.8832e-06
-2.2014e-08
7.87438e-06
1.26721e-08
7.87214e-06
3.59461e-08
7.8765e-06
7.80601e-08
7.87809e-06
1.01694e-07
7.87965e-06
1.07319e-07
7.88436e-06
1.1396e-07
7.8895e-06
1.17007e-07
7.89419e-06
1.13737e-07
1.10163e-07
7.8985e-06
8.28133e-06
-2.06632e-07
8.28671e-06
-9.29216e-08
8.29768e-06
1.18544e-07
8.29024e-06
-2.78053e-08
8.30199e-06
9.3743e-08
8.29919e-06
8.1709e-08
8.29317e-06
-5.79175e-08
8.2914e-06
-4.40802e-08
8.2772e-06
-5.78956e-08
8.2662e-06
-7.66808e-08
8.26217e-06
-1.79891e-08
8.25397e-06
2.08736e-08
8.25038e-06
3.9537e-08
8.25459e-06
7.3846e-08
8.25745e-06
9.88386e-08
8.25897e-06
1.05801e-07
8.26295e-06
1.09977e-07
8.26797e-06
1.11989e-07
8.27289e-06
1.08813e-07
1.05461e-07
8.27759e-06
8.68003e-06
-1.84998e-07
8.68215e-06
-9.50402e-08
8.69399e-06
1.06696e-07
8.68813e-06
-2.19445e-08
8.69846e-06
8.34135e-08
8.69624e-06
8.3932e-08
8.6898e-06
-5.14758e-08
8.68786e-06
-4.21454e-08
8.67373e-06
-4.3765e-08
8.66223e-06
-6.51783e-08
8.65923e-06
-1.49927e-08
8.65215e-06
2.79597e-08
8.64734e-06
4.43428e-08
8.65069e-06
7.04973e-08
8.65472e-06
9.48052e-08
8.65677e-06
1.03759e-07
8.66006e-06
1.06678e-07
8.66474e-06
1.07318e-07
8.66963e-06
1.03919e-07
1.00396e-07
8.6747e-06
9.09771e-06
-1.65086e-07
9.09709e-06
-9.44225e-08
9.10897e-06
9.48194e-08
9.10493e-06
-1.79059e-08
9.11412e-06
7.42191e-08
9.11203e-06
8.60208e-08
9.1053e-06
-4.47464e-08
9.10363e-06
-4.04745e-08
9.08961e-06
-2.97454e-08
9.07706e-06
-5.26295e-08
9.07499e-06
-1.29222e-08
9.06961e-06
3.33419e-08
9.06401e-06
4.99473e-08
9.06592e-06
6.85813e-08
9.07072e-06
9.00044e-08
9.07364e-06
1.0084e-07
9.07658e-06
1.03741e-07
9.08079e-06
1.03104e-07
9.08543e-06
9.92858e-08
9.52011e-08
9.09062e-06
9.53522e-06
-1.46846e-07
9.5325e-06
-9.16995e-08
9.54362e-06
8.36993e-08
9.54143e-06
-1.57154e-08
9.54991e-06
6.57371e-08
9.54763e-06
8.83011e-08
9.54038e-06
-3.75012e-08
9.53948e-06
-3.95754e-08
9.52607e-06
-1.63327e-08
9.5119e-06
-3.84604e-08
9.51008e-06
-1.11009e-08
9.50698e-06
3.64399e-08
9.5013e-06
5.56299e-08
9.50155e-06
6.8329e-08
9.50637e-06
8.51844e-08
9.51028e-06
9.69296e-08
9.51337e-06
1.00652e-07
9.51706e-06
9.94149e-08
9.52131e-06
9.50334e-08
9.01768e-08
9.52634e-06
9.99346e-06
-1.30174e-07
9.98929e-06
-8.75251e-08
9.99905e-06
7.39353e-08
9.99847e-06
-1.51343e-08
1.00067e-05
5.74837e-08
1.00042e-05
9.08069e-08
9.99597e-06
-2.92484e-08
9.99605e-06
-3.96602e-08
9.98413e-06
-4.40736e-09
9.96821e-06
-2.25474e-08
9.96555e-06
-8.43848e-09
9.96487e-06
3.71232e-08
9.96002e-06
6.04752e-08
9.95876e-06
6.95882e-08
9.9628e-06
8.11466e-08
9.96755e-06
9.21823e-08
9.97117e-06
9.70278e-08
9.97455e-06
9.60416e-08
9.97841e-06
9.11652e-08
8.55932e-08
9.983e-06
1.04734e-05
-1.14913e-07
1.04684e-05
-8.25405e-08
1.04764e-05
6.59039e-08
1.0477e-05
-1.56668e-08
1.04855e-05
4.89679e-08
1.04829e-05
9.33708e-08
1.04732e-05
-1.9543e-08
1.0474e-05
-4.044e-08
1.04647e-05
4.86047e-09
1.04475e-05
-5.29297e-09
1.04427e-05
-3.71929e-09
1.0444e-05
3.58742e-08
1.04409e-05
6.35754e-08
1.04386e-05
7.18843e-08
1.04413e-05
7.84056e-08
1.04464e-05
8.7074e-08
1.04508e-05
9.271e-08
1.04542e-05
9.25698e-08
1.04578e-05
8.76004e-08
8.15542e-08
1.04618e-05
1.0976e-05
-1.00871e-07
1.09708e-05
-7.73252e-08
1.09769e-05
5.97528e-08
1.09779e-05
-1.66708e-08
1.0987e-05
3.98467e-08
1.09848e-05
9.55626e-08
1.09734e-05
-8.07616e-09
1.09741e-05
-4.12097e-08
1.09685e-05
1.05568e-08
1.0951e-05
1.21973e-08
1.09433e-05
3.94038e-09
1.09454e-05
3.37378e-08
1.09445e-05
6.44722e-08
1.0942e-05
7.44049e-08
1.09434e-05
7.70701e-08
1.09481e-05
8.23072e-08
1.09531e-05
8.77344e-08
1.0957e-05
8.8666e-08
1.09604e-05
8.41558e-08
7.78789e-08
1.09641e-05
1.15024e-05
-8.78595e-08
1.14974e-05
-7.23635e-08
1.15017e-05
5.54267e-08
1.15025e-05
-1.74497e-08
1.15124e-05
2.99847e-08
1.15111e-05
9.67884e-08
1.14979e-05
5.10763e-09
1.14976e-05
-4.08673e-08
1.14959e-05
1.22923e-08
1.14796e-05
2.84564e-08
1.1469e-05
1.45604e-08
1.14705e-05
3.22267e-08
1.14718e-05
6.3158e-08
1.147e-05
7.62565e-08
1.14701e-05
7.69514e-08
1.14739e-05
7.84891e-08
1.14793e-05
8.23743e-08
1.14837e-05
8.42188e-08
1.14873e-05
8.06119e-08
7.43636e-08
1.14908e-05
1.20537e-05
-7.57112e-08
1.20493e-05
-6.79707e-08
1.20521e-05
5.26411e-08
1.20519e-05
-1.73127e-08
1.20624e-05
1.9511e-08
1.20628e-05
9.63842e-08
1.20483e-05
1.96514e-08
1.20457e-05
-3.83388e-08
1.20476e-05
1.04132e-08
1.20342e-05
4.19135e-08
1.20212e-05
2.75112e-08
1.20208e-05
3.26543e-08
1.20238e-05
6.01576e-08
1.20233e-05
7.66851e-08
1.20227e-05
7.76451e-08
1.20253e-05
7.58565e-08
1.20305e-05
7.72013e-08
1.20355e-05
7.92256e-08
1.20392e-05
7.6825e-08
7.08326e-08
1.20428e-05
1.26312e-05
-6.43023e-08
1.26275e-05
-6.42908e-08
1.26292e-05
5.09544e-08
1.26276e-05
-1.56773e-08
1.26383e-05
8.76479e-09
1.26408e-05
9.386e-08
1.26257e-05
3.48001e-08
1.26201e-05
-3.27792e-08
1.26245e-05
6.00554e-09
1.26153e-05
5.11492e-08
1.26012e-05
4.16151e-08
1.25981e-05
3.5761e-08
1.26017e-05
5.65115e-08
1.26031e-05
7.53486e-08
1.26023e-05
7.83749e-08
1.26038e-05
7.44024e-08
1.26081e-05
7.28374e-08
1.26135e-05
7.38452e-08
1.26177e-05
7.26499e-08
6.72059e-08
1.26213e-05
1.32362e-05
-5.35556e-08
1.32332e-05
-6.13149e-08
1.32343e-05
4.98448e-08
1.32308e-05
-1.21875e-08
1.32413e-05
-1.68109e-09
1.32462e-05
8.88967e-08
1.32314e-05
4.96006e-08
1.32225e-05
-2.38884e-08
1.32279e-05
6.9046e-10
1.32236e-05
5.53914e-08
1.32099e-05
5.5301e-08
1.32041e-05
4.15738e-08
1.32072e-05
5.34661e-08
1.32102e-05
7.23587e-08
1.32102e-05
7.82974e-08
1.32108e-05
7.38247e-08
1.32141e-05
6.95586e-08
1.32194e-05
6.84939e-08
1.32241e-05
6.80159e-08
6.34318e-08
1.32279e-05
1.38701e-05
-4.34578e-08
1.38676e-05
-5.88499e-08
1.38687e-05
4.87702e-08
1.38634e-05
-6.8719e-09
1.38726e-05
-1.09345e-08
1.38801e-05
8.14129e-08
1.38667e-05
6.29897e-08
1.38548e-05
-1.19528e-08
1.38591e-05
-3.6489e-09
1.38599e-05
5.46482e-08
1.38483e-05
6.68511e-08
1.38403e-05
4.95718e-08
1.38419e-05
5.18988e-08
1.3846e-05
6.82747e-08
1.38474e-05
7.68485e-08
1.38477e-05
7.35378e-08
1.385e-05
6.72785e-08
1.38549e-05
6.36083e-08
1.38599e-05
6.29352e-08
5.95255e-08
1.38638e-05
1.45343e-05
-3.40526e-08
1.4532e-05
-5.65543e-08
1.45336e-05
4.7177e-08
1.45266e-05
1.15295e-10
1.45339e-05
-1.82178e-08
1.45436e-05
7.1646e-08
1.45327e-05
7.39379e-08
1.45184e-05
2.29029e-09
1.45202e-05
-5.4586e-09
1.4525e-05
4.98477e-08
1.45171e-05
7.47417e-08
1.45079e-05
5.88011e-08
1.45075e-05
5.22928e-08
1.4512e-05
6.37592e-08
1.45149e-05
7.39978e-08
1.45156e-05
7.28683e-08
1.45171e-05
6.57173e-08
1.4521e-05
5.96974e-08
1.45264e-05
5.75236e-08
5.53929e-08
1.45306e-05
1.52303e-05
-2.54406e-08
1.52277e-05
-5.4005e-08
1.52303e-05
4.46374e-08
1.5222e-05
8.34517e-09
1.52266e-05
-2.27988e-08
1.52381e-05
6.01454e-08
1.52305e-05
8.15854e-08
1.5215e-05
1.77519e-08
1.52134e-05
-3.81695e-09
1.52206e-05
4.25727e-08
1.52172e-05
7.81281e-08
1.52081e-05
6.79285e-08
1.52058e-05
5.46496e-08
1.52099e-05
5.96114e-08
1.5214e-05
6.98773e-08
1.52156e-05
7.12609e-08
1.52168e-05
6.45193e-08
1.52197e-05
5.68408e-08
1.52248e-05
5.24601e-08
5.08575e-08
1.52293e-05
1.59596e-05
-1.77421e-08
1.59564e-05
-5.08123e-08
1.59601e-05
4.09676e-08
1.59513e-05
1.71433e-08
1.59527e-05
-2.41506e-08
1.59651e-05
4.76931e-08
1.59613e-05
8.54333e-08
1.59458e-05
3.31712e-08
1.59406e-05
1.40555e-09
1.59483e-05
3.48786e-08
1.59496e-05
7.6858e-08
1.5942e-05
7.55064e-08
1.59381e-05
5.85532e-08
1.59411e-05
5.66024e-08
1.59462e-05
6.47459e-08
1.59491e-05
6.84127e-08
1.59504e-05
6.3259e-08
1.59524e-05
5.47581e-08
1.59565e-05
4.84369e-08
4.6005e-08
1.59613e-05
1.67239e-05
-1.10741e-08
1.67198e-05
-4.66634e-08
1.67245e-05
3.62359e-08
1.6716e-05
2.56853e-08
1.67139e-05
-2.20791e-08
1.67263e-05
3.52893e-08
1.67264e-05
8.53753e-08
1.67122e-05
4.7358e-08
1.67041e-05
9.47979e-09
1.67102e-05
2.88068e-08
1.67154e-05
7.16148e-08
1.67108e-05
8.01391e-08
1.6706e-05
6.33748e-08
1.67074e-05
5.51375e-08
1.67129e-05
5.93064e-08
1.6717e-05
6.4302e-08
1.67188e-05
6.14176e-08
1.67203e-05
5.32486e-08
1.67232e-05
4.55708e-08
4.15639e-08
1.67276e-05
1.75248e-05
-5.51659e-09
1.75196e-05
-4.14349e-08
1.7525e-05
3.07914e-08
1.75175e-05
3.31584e-08
1.75123e-05
-1.68694e-08
1.75235e-05
2.413e-08
1.75272e-05
8.16529e-08
1.75153e-05
5.9279e-08
1.75054e-05
1.93677e-08
1.75087e-05
2.54856e-08
1.75164e-05
6.39678e-08
1.75154e-05
8.10717e-08
1.75107e-05
6.80821e-08
1.75107e-05
5.51622e-08
1.75155e-05
5.45359e-08
1.75206e-05
5.92103e-08
1.75233e-05
5.87074e-08
1.75245e-05
5.20191e-08
1.75264e-05
4.37152e-08
3.83061e-08
1.75296e-05
1.83639e-05
-1.10267e-09
1.83577e-05
-3.51551e-08
1.83633e-05
2.51299e-08
1.83575e-05
3.89257e-08
1.83499e-05
-9.23762e-09
1.83587e-05
1.5316e-08
1.83654e-05
7.49871e-08
1.83566e-05
6.80698e-08
1.8346e-05
2.99713e-08
1.83464e-05
2.50913e-08
1.83547e-05
5.56464e-08
1.83573e-05
7.85139e-08
1.83539e-05
7.14923e-08
1.83526e-05
5.64126e-08
1.83561e-05
5.10985e-08
1.83615e-05
5.3788e-08
1.8365e-05
5.51356e-08
1.83665e-05
5.05877e-08
1.83674e-05
4.27778e-08
3.61477e-08
1.83696e-05
1.92431e-05
2.20054e-09
1.9236e-05
-2.80195e-08
1.92413e-05
1.97904e-08
1.92376e-05
4.25911e-08