/*--------------------------------*- C++ -*----------------------------------*\
| =========                 |                                                 |
| \\      /  F ield         | OpenFOAM: The Open Source CFD Toolbox           |
|  \\    /   O peration     | Version:  2106                                  |
|   \\  /    A nd           | Website:  www.openfoam.com                      |
|    \\/     M anipulation  |                                                 |
\*---------------------------------------------------------------------------*/
FoamFile
{
    version     2.0;
    format      ascii;
    arch        "LSB;label=32;scalar=64";
    class       surfaceScalarField;
    location    "0.89";
    object      phi;
}
// * * * * * * * * * * * * * * * * * * * * * * * * * * * * * * * * * * * * * //

dimensions      [0 3 -1 0 0 0 0];

oriented        oriented;

internalField   nonuniform List<scalar> 
19000
(
1.18781e-06
-2.26616e-07
1.18112e-06
6.25764e-07
1.1502e-06
-1.13619e-07
1.13923e-06
-3.71959e-07
1.19834e-06
-2.32514e-07
1.18487e-06
-2.28305e-08
1.16959e-06
4.5682e-08
1.17454e-06
6.02876e-07
1.16421e-06
-5.25084e-08
1.15434e-06
2.45951e-07
1.16926e-06
-2.01058e-07
1.17298e-06
9.71501e-08
1.17966e-06
-1.7378e-07
1.16732e-06
-3.26313e-08
1.17116e-06
-2.32203e-07
1.16022e-06
-6.91059e-08
1.16618e-06
-8.80711e-08
1.15641e-06
1.74808e-08
1.15527e-06
5.94802e-08
5.81886e-08
1.12814e-06
1.24406e-06
-2.46417e-07
1.2423e-06
6.27529e-07
1.20936e-06
-8.06793e-08
1.19693e-06
-3.59535e-07
1.25603e-06
-2.91611e-07
1.24384e-06
-1.06418e-08
1.22572e-06
6.38052e-08
1.23764e-06
5.90956e-07
1.22378e-06
-3.86466e-08
1.21898e-06
2.5075e-07
1.22812e-06
-2.10203e-07
1.23836e-06
8.69114e-08
1.23766e-06
-1.73076e-07
1.23488e-06
-2.98529e-08
1.22725e-06
-2.24577e-07
1.22882e-06
-7.06684e-08
1.21709e-06
-7.63479e-08
1.22742e-06
7.15076e-09
1.20059e-06
8.63088e-08
4.74311e-08
1.21135e-06
1.30064e-06
-2.64276e-07
1.30644e-06
6.21729e-07
1.27158e-06
-4.58123e-08
1.26059e-06
-3.48553e-07
1.31365e-06
-3.44667e-07
1.30906e-06
-6.05107e-09
1.28499e-06
8.78795e-08
1.30203e-06
5.73915e-07
1.28404e-06
-2.06591e-08
1.28531e-06
2.49484e-07
1.28545e-06
-2.10346e-07
1.30074e-06
7.16228e-08
1.29357e-06
-1.65909e-07
1.29681e-06
-3.30954e-08
1.28178e-06
-2.09547e-07
1.28681e-06
-7.56915e-08
1.27293e-06
-6.24687e-08
1.27985e-06
2.30249e-10
1.26453e-06
1.01631e-07
5.54047e-08
1.25655e-06
1.35792e-06
-2.78093e-07
1.37007e-06
6.09574e-07
1.33562e-06
-1.13599e-08
1.32808e-06
-3.41014e-07
1.37119e-06
-3.8777e-07
1.37493e-06
-9.79566e-09
1.34781e-06
1.15e-07
1.36376e-06
5.57968e-07
1.34553e-06
-2.42718e-09
1.34823e-06
2.4678e-07
1.34352e-06
-2.05637e-07
1.35737e-06
5.77705e-08
1.35005e-06
-1.5859e-07
1.35301e-06
-3.60468e-08
1.33834e-06
-1.94885e-07
1.34037e-06
-7.77141e-08
1.33035e-06
-5.24536e-08
1.33258e-06
-1.99866e-09
1.32462e-06
1.09592e-07
6.73682e-08
1.31265e-06
1.41691e-06
-2.86651e-07
1.43215e-06
5.94338e-07
1.40166e-06
1.9132e-08
1.39789e-06
-3.37245e-07
1.42933e-06
-4.19212e-07
1.43835e-06
-1.88172e-08
1.41374e-06
1.39608e-07
1.42449e-06
5.47222e-07
1.40931e-06
1.27517e-08
1.4112e-06
2.44891e-07
1.40504e-06
-1.99478e-07
1.41523e-06
4.75766e-08
1.40946e-06
-1.52812e-07
1.41171e-06
-3.83032e-08
1.39857e-06
-1.81744e-07
1.39863e-06
-7.77769e-08
1.38979e-06
-4.36102e-08
1.39053e-06
-2.74264e-09
1.38484e-06
1.15289e-07
7.8938e-08
1.37327e-06
1.47915e-06
-2.90124e-07
1.49382e-06
5.79672e-07
1.47046e-06
4.24882e-08
1.46962e-06
-3.36409e-07
1.48989e-06
-4.39476e-07
1.50001e-06
-2.89372e-08
1.48171e-06
1.57908e-07
1.48748e-06
5.41451e-07
1.47613e-06
2.40984e-08
1.47783e-06
2.43191e-07
1.47132e-06
-1.92966e-07
1.47864e-06
4.0258e-08
1.47322e-06
-1.47395e-07
1.47566e-06
-4.07471e-08
1.46333e-06
-1.69408e-07
1.46279e-06
-7.72358e-08
1.45386e-06
-3.46828e-08
1.45355e-06
-2.43558e-09
1.44954e-06
1.19304e-07
9.02597e-08
1.43822e-06
1.54592e-06
-2.89825e-07
1.55764e-06
5.67952e-07
1.54263e-06
5.74945e-08
1.5437e-06
-3.37475e-07
1.55453e-06
-4.50311e-07
1.56268e-06
-3.70809e-08
1.55104e-06
1.69541e-07
1.55462e-06
5.37877e-07
1.54643e-06
3.22862e-08
1.54918e-06
2.40441e-07
1.54237e-06
-1.86161e-07
1.54805e-06
3.45788e-08
1.54184e-06
-1.4118e-07
1.54455e-06
-4.34624e-08
1.5326e-06
-1.57451e-07
1.53196e-06
-7.66033e-08
1.52322e-06
-2.59423e-08
1.52169e-06
-9.04615e-10
1.51942e-06
1.21576e-07
1.01368e-07
1.50831e-06
1.6177e-06
-2.87391e-07
1.62603e-06
5.59613e-07
1.61834e-06
6.51857e-08
1.62054e-06
-3.39672e-07
1.62401e-06
-4.53783e-07
1.62889e-06
-4.19603e-08
1.62221e-06
1.76222e-07
1.62631e-06
5.33778e-07
1.62047e-06
3.81224e-08
1.62486e-06
2.36058e-07
1.61766e-06
-1.78968e-07
1.62257e-06
2.96723e-08
1.61514e-06
-1.33749e-07
1.61784e-06
-4.61667e-08
1.60608e-06
-1.45688e-07
1.60547e-06
-7.59951e-08
1.59746e-06
-1.79275e-08
1.59471e-06
1.83971e-09
1.59415e-06
1.22136e-07
1.12076e-07
1.58344e-06
1.69423e-06
-2.84048e-07
1.70023e-06
5.53609e-07
1.69757e-06
6.78504e-08
1.70026e-06
-3.42362e-07
1.69826e-06
-4.51781e-07
1.70003e-06
-4.37358e-08
1.69642e-06
1.79837e-07
1.70247e-06
5.27728e-07
1.69836e-06
4.22335e-08
1.70431e-06
2.301e-07
1.69666e-06
-1.71311e-07
1.70133e-06
2.50043e-08
1.69278e-06
-1.25209e-07
1.6953e-06
-4.86789e-08
1.68368e-06
-1.34075e-07
1.68299e-06
-7.53008e-08
1.67608e-06
-1.10212e-08
1.67224e-06
5.68034e-09
1.6732e-06
1.2118e-07
1.22139e-07
1.66314e-06
1.77504e-06
-2.80366e-07
1.78027e-06
5.48375e-07
1.78035e-06
6.77713e-08
1.78284e-06
-3.44853e-07
1.77691e-06
-4.45842e-07
1.77654e-06
-4.33662e-08
1.77477e-06
1.81608e-07
1.78304e-06
5.19459e-07
1.78009e-06
4.51837e-08
1.78724e-06
2.22941e-07
1.77906e-06
-1.63126e-07
1.7838e-06
2.02579e-08
1.77451e-06
-1.15918e-07
1.77682e-06
-5.09841e-08
1.76546e-06
-1.22715e-07
1.76444e-06
-7.42838e-08
1.7588e-06
-5.38128e-09
1.75398e-06
1.05017e-08
1.75607e-06
1.19089e-07
1.31269e-07
1.74694e-06
1.85983e-06
-2.76447e-07
1.86561e-06
5.42596e-07
1.86685e-06
6.65329e-08
1.86844e-06
-3.46447e-07
1.85972e-06
-4.37119e-07
1.85837e-06
-4.20192e-08
1.85783e-06
1.82147e-07
1.86802e-06
5.09274e-07
1.86571e-06
4.74938e-08
1.87361e-06
2.15038e-07
1.86484e-06
-1.54359e-07
1.86983e-06
1.52765e-08
1.86021e-06
-1.063e-07
1.86236e-06
-5.31391e-08
1.85146e-06
-1.11812e-07
1.84987e-06
-7.26908e-08
1.84545e-06
-9.61166e-10
1.83976e-06
1.61895e-08
1.84247e-06
1.16378e-07
1.39164e-07
1.83457e-06
1.9486e-06
-2.72205e-07
1.95569e-06
5.35504e-07
1.95725e-06
6.49741e-08
1.95743e-06
-3.46628e-07
1.94671e-06
-4.26404e-07
1.94537e-06
-4.067e-08
1.94576e-06
1.81756e-07
1.95742e-06
4.97614e-07
1.95535e-06
4.95622e-08
1.9636e-06
2.06791e-07
1.95422e-06
-1.44988e-07
1.95946e-06
1.00393e-08
1.94989e-06
-9.67318e-08
1.95192e-06
-5.51678e-08
1.94171e-06
-1.01599e-07
1.93934e-06
-7.03192e-08
1.93596e-06
2.41839e-09
1.92958e-06
2.25635e-08
1.93237e-06
1.13596e-07
1.45558e-07
1.92597e-06
2.04154e-06
-2.67561e-07
2.05022e-06
5.26832e-07
2.05175e-06
6.34433e-08
2.05031e-06
-3.45192e-07
2.03812e-06
-4.14211e-07
2.03737e-06
-3.99183e-08
2.03851e-06
1.80615e-07
2.05124e-06
4.84874e-07
2.04919e-06
5.16205e-08
2.0575e-06
1.98481e-07
2.04756e-06
-1.35052e-07
2.05297e-06
4.63264e-09
2.04372e-06
-8.74867e-08
2.04556e-06
-5.701e-08
2.03623e-06
-9.2261e-08
2.03298e-06
-6.70701e-08
2.03038e-06
5.01142e-09
2.02359e-06
2.93563e-08
2.02598e-06
1.11206e-07
1.50291e-07
2.02125e-06
2.13894e-06
-2.62496e-07
2.14913e-06
5.16636e-07
2.15053e-06
6.20495e-08
2.14756e-06
-3.42229e-07
2.13422e-06
-4.0087e-07
2.13429e-06
-3.99873e-08
2.13605e-06
1.78853e-07
2.14956e-06
4.71365e-07
2.14743e-06
5.375e-08
2.15564e-06
1.90271e-07
2.14525e-06
-1.24658e-07
2.15067e-06
-7.91392e-10
2.14192e-06
-7.87346e-08
2.14344e-06
-5.85272e-08
2.13507e-06
-8.38887e-08
2.13096e-06
-6.29628e-08
2.12885e-06
7.11774e-09
2.12197e-06
3.62416e-08
2.12368e-06
1.09497e-07
1.53348e-07
2.12062e-06
2.24104e-06
-2.57044e-07
2.25254e-06
5.05128e-07
2.25378e-06
6.08106e-08
2.24957e-06
-3.38018e-07
2.23532e-06
-3.86618e-07
2.23616e-06
-4.08285e-08
2.23845e-06
1.76567e-07
2.25249e-06
4.57323e-07
2.25032e-06
5.59232e-08
2.25834e-06
1.82246e-07
2.24765e-06
-1.13969e-07
2.25292e-06
-6.06144e-09
2.24475e-06
-7.05637e-08
2.24578e-06
-5.95553e-08
2.23835e-06
-7.64587e-08
2.23351e-06
-5.81201e-08
2.23156e-06
9.0644e-09
2.22492e-06
4.2885e-08
2.22584e-06
1.08578e-07
1.54862e-07
2.22432e-06
2.34809e-06
-2.51262e-07
2.36066e-06
4.92564e-07
2.36175e-06
5.97178e-08
2.35662e-06
-3.32889e-07
2.34166e-06
-3.71653e-07
2.34308e-06
-4.22491e-08
2.34581e-06
1.73839e-07
2.36019e-06
4.42942e-07
2.35806e-06
5.80455e-08
2.36586e-06
1.74452e-07
2.35506e-06
-1.03175e-07
2.36002e-06
-1.10205e-08
2.35247e-06
-6.30066e-08
2.35288e-06
-5.99658e-08
2.34626e-06
-6.9844e-08
2.34087e-06
-5.27279e-08
2.33879e-06
1.11452e-08
2.33265e-06
4.90211e-08
2.33281e-06
1.08419e-07
1.5507e-07
2.3326e-06
2.46034e-06
-2.45209e-07
2.47373e-06
4.7918e-07
2.47469e-06
5.8758e-08
2.46893e-06
-3.27135e-07
2.45344e-06
-3.56164e-07
2.45521e-06
-4.40132e-08
2.45832e-06
1.7073e-07
2.47286e-06
4.28396e-07
2.47092e-06
5.99901e-08
2.47844e-06
1.66928e-07
2.46773e-06
-9.24592e-08
2.47226e-06
-1.55519e-08
2.4653e-06
-5.60496e-08
2.46504e-06
-5.97071e-08
2.45905e-06
-6.38472e-08
2.4533e-06
-4.69818e-08
2.45091e-06
1.35388e-08
2.44539e-06
5.45414e-08
2.44492e-06
1.08884e-07
1.54273e-07
2.44572e-06
2.57802e-06
-2.38939e-07
2.59204e-06
4.65166e-07
2.59288e-06
5.79179e-08
2.5867e-06
-3.20961e-07
2.57088e-06
-3.40339e-07
2.57276e-06
-4.58997e-08
2.57622e-06
1.67275e-07
2.59077e-06
4.13849e-07
2.58913e-06
6.16253e-08
2.59635e-06
1.59712e-07
2.58586e-06
-8.19676e-08
2.5899e-06
-1.95952e-08
2.58348e-06
-4.96333e-08
2.58259e-06
-5.88121e-08
2.57699e-06
-5.82486e-08
2.57105e-06
-4.10383e-08
2.5683e-06
1.62839e-08
2.56335e-06
5.94965e-08
2.56247e-06
1.09757e-07
1.5279e-07
2.56395e-06
2.70138e-06
-2.32495e-07
2.71589e-06
4.50661e-07
2.71663e-06
5.71789e-08
2.71014e-06
-3.14475e-07
2.69416e-06
-3.24354e-07
2.69598e-06
-4.77222e-08
2.69978e-06
1.63472e-07
2.71418e-06
3.99454e-07
2.71297e-06
6.2839e-08
2.71985e-06
1.52829e-07
2.70967e-06
-7.17852e-08
2.71323e-06
-2.31555e-08
2.70725e-06
-4.36556e-08
2.70581e-06
-5.7369e-08
2.70041e-06
-5.28577e-08
2.69436e-06
-3.49856e-08
2.69132e-06
1.93205e-08
2.68682e-06
6.40043e-08
2.68575e-06
1.1082e-07
1.50906e-07
2.68764e-06
2.83069e-06
-2.25913e-07
2.84558e-06
4.35766e-07
2.84625e-06
5.651e-08
2.83948e-06
-3.07707e-07
2.8235e-06
-3.08374e-07
2.82511e-06
-4.93284e-08
2.82929e-06
1.59286e-07
2.84341e-06
3.85343e-07
2.84269e-06
6.35552e-08
2.84924e-06
1.46281e-07
2.83938e-06
-6.1926e-08
2.84252e-06
-2.62943e-08
2.83686e-06
-3.79958e-08
2.83495e-06
-5.54635e-08
2.82967e-06
-4.75772e-08
2.82349e-06
-2.88094e-08
2.82028e-06
2.25363e-08
2.81613e-06
6.81538e-08
2.81503e-06
1.11917e-07
1.48822e-07
2.81712e-06
2.96621e-06
-2.19224e-07
2.98142e-06
4.20556e-07
2.98206e-06
5.58642e-08
2.97498e-06
-3.00628e-07
2.95915e-06
-2.92542e-07
2.96042e-06
-5.05921e-08
2.96504e-06
1.5466e-07
2.97877e-06
3.71617e-07
2.97858e-06
6.37465e-08
2.98483e-06
1.40027e-07
2.97524e-06
-5.23346e-08
2.97806e-06
-2.91153e-08
2.9726e-06
-3.2534e-08
2.97028e-06
-5.31469e-08
2.96511e-06
-4.24071e-08
2.95872e-06
-2.24163e-08
2.95543e-06
2.58229e-08
2.95164e-06
7.19481e-08
2.95057e-06
1.12984e-07
1.46659e-07
2.95273e-06
3.10824e-06
-2.12453e-07
3.12369e-06
4.05099e-07
3.12438e-06
5.51776e-08
3.11693e-06
-2.93178e-07
3.10138e-06
-2.7699e-07
3.10219e-06
-5.14042e-08
3.10731e-06
1.49538e-07
3.1206e-06
3.58331e-07
3.1209e-06
6.34439e-08
3.12695e-06
1.33975e-07
3.11752e-06
-4.28995e-08
3.12014e-06
-3.1735e-08
3.11479e-06
-2.71859e-08
3.11204e-06
-5.03989e-08
3.10706e-06
-3.74232e-08
3.10036e-06
-1.57177e-08
3.09703e-06
2.91523e-08
3.09367e-06
7.53049e-08
3.09264e-06
1.1401e-07
1.44492e-07
3.09481e-06
3.25708e-06
-2.05627e-07
3.27272e-06
3.89462e-07
3.27353e-06
5.43726e-08
3.26563e-06
-2.85279e-07
3.25047e-06
-2.61836e-07
3.25074e-06
-5.16727e-08
3.2564e-06
1.43883e-07
3.26924e-06
3.45489e-07
3.26994e-06
6.27392e-08
3.27594e-06
1.27982e-07
3.26652e-06
-3.34842e-08
3.26902e-06
-3.42365e-08
3.26379e-06
-2.19504e-08
3.26049e-06
-4.70995e-08
3.25581e-06
-3.27485e-08
3.24879e-06
-8.68991e-09
3.24533e-06
3.26051e-08
3.24254e-06
7.81001e-08
3.24157e-06
1.14977e-07
1.42386e-07
3.24368e-06
3.41308e-06
-1.98776e-07
3.42882e-06
3.73717e-07
3.42984e-06
5.33604e-08
3.4214e-06
-2.76846e-07
3.40676e-06
-2.47187e-07
3.40641e-06
-5.13279e-08
3.4126e-06
1.37696e-07
3.42505e-06
3.33034e-07
3.42601e-06
6.17835e-08
3.43212e-06
1.2187e-07
3.4226e-06
-2.39629e-08
3.425e-06
-3.66333e-08
3.41996e-06
-1.69176e-08
3.41593e-06
-4.30676e-08
3.41164e-06
-2.84588e-08
3.4044e-06
-1.45259e-09
3.40066e-06
3.63492e-08
3.39852e-06
8.0244e-08
3.3977e-06
1.15798e-07
1.40423e-07
3.39966e-06
3.57656e-06
-1.91929e-07
3.59233e-06
3.57948e-07
3.59365e-06
5.20448e-08
3.58461e-06
-2.67804e-07
3.57055e-06
-2.33133e-07
3.56956e-06
-5.03344e-08
3.57622e-06
1.31033e-07
3.58841e-06
3.20852e-07
3.58942e-06
6.07701e-08
3.59583e-06
1.1546e-07
3.58613e-06
-1.42657e-08
3.58833e-06
-3.88277e-08
3.58369e-06
-1.22791e-08
3.57872e-06
-3.80961e-08
3.5748e-06
-2.45429e-08
3.56757e-06
5.77389e-09
3.56339e-06
4.05293e-08
3.56188e-06
8.17556e-08
3.56138e-06
1.16305e-07
1.38684e-07
3.56311e-06
3.7479e-06
-1.85121e-07
3.7636e-06
3.42246e-07
3.76532e-06
5.03267e-08
3.7556e-06
-2.58088e-07
3.7422e-06
-2.19736e-07
3.74057e-06
-4.87004e-08
3.7476e-06
1.24001e-07
3.75967e-06
3.08783e-07
3.76053e-06
5.99123e-08
3.76739e-06
1.08601e-07
3.75754e-06
-4.41479e-09
3.75932e-06
-4.06075e-08
3.7553e-06
-8.26464e-09
3.74925e-06
-3.20423e-08
3.74556e-06
-2.08555e-08
3.73862e-06
1.27158e-08
3.73399e-06
4.51612e-08
3.73293e-06
8.28163e-08
3.73296e-06
1.16276e-07
1.37178e-07
3.73446e-06
3.92745e-06
-1.78387e-07
3.94299e-06
3.2671e-07
3.94521e-06
4.81068e-08
3.93478e-06
-2.47661e-07
3.92206e-06
-2.07016e-07
3.91985e-06
-4.64897e-08
3.92708e-06
1.1677e-07
3.93923e-06
2.96636e-07
3.93973e-06
5.94081e-08
3.9471e-06
1.01234e-07
3.93725e-06
5.43703e-09
3.93831e-06
-4.16697e-08
3.93511e-06
-5.06604e-09
3.92798e-06
-2.49064e-08
3.92424e-06
-1.7113e-08
3.91787e-06
1.9082e-08
3.91289e-06
5.01357e-08
3.91201e-06
8.37029e-08
3.91273e-06
1.15555e-07
1.35768e-07
3.91414e-06
4.11563e-06
-1.71764e-07
4.13089e-06
3.11448e-07
4.1337e-06
4.52933e-08
4.12257e-06
-2.36524e-07
4.1105e-06
-1.94945e-07
4.10783e-06
-4.38195e-08
4.11504e-06
1.09553e-07
4.12746e-06
2.84218e-07
4.12747e-06
5.94006e-08
4.13528e-06
9.34221e-08
4.1257e-06
1.50125e-08
4.12571e-06
-4.16804e-08
4.12341e-06
-2.76344e-09
4.11536e-06
-1.68525e-08
4.11124e-06
-1.29936e-08
4.10566e-06
2.46578e-08
4.10055e-06
5.52498e-08
4.09958e-06
8.46712e-08
4.10098e-06
1.14159e-07
1.34173e-07
4.10257e-06
4.31283e-06
-1.65287e-07
4.32771e-06
2.96564e-07
4.33119e-06
4.18093e-08
4.31939e-06
-2.24724e-07
4.30788e-06
-1.83436e-07
4.30493e-06
-4.08651e-08
4.31189e-06
1.02595e-07
4.32473e-06
2.71372e-07
4.32419e-06
5.99392e-08
4.33226e-06
8.53554e-08
4.32329e-06
2.39853e-08
4.32197e-06
-4.03625e-08
4.32049e-06
-1.28042e-09
4.3118e-06
-8.16575e-09
4.30707e-06
-8.2605e-09
4.30236e-06
2.93614e-08
4.29736e-06
6.02522e-08
4.29616e-06
8.58742e-08
4.29801e-06
1.12307e-07
1.32083e-07
4.3001e-06
4.51948e-06
-1.58991e-07
4.53388e-06
2.82163e-07
4.53809e-06
3.76028e-08
4.52573e-06
-2.12371e-07
4.51463e-06
-1.72334e-07
4.51162e-06
-3.78522e-08
4.51806e-06
9.61532e-08
4.53142e-06
2.58008e-07
4.53043e-06
6.09365e-08
4.53845e-06
7.73355e-08
4.53035e-06
3.20792e-08
4.52758e-06
-3.75944e-08
4.52667e-06
-3.70282e-10
4.51771e-06
8.00535e-10
4.51225e-06
-2.80128e-09
4.5084e-06
3.32123e-08
4.50374e-06
6.49127e-08
4.50228e-06
8.73345e-08
4.50427e-06
1.10313e-07
1.29329e-07
4.50702e-06
4.73603e-06
-1.52905e-07
4.74986e-06
2.68331e-07
4.75479e-06
3.26749e-08
4.74208e-06
-1.99665e-07
4.73116e-06
-1.61412e-07
4.72834e-06
-3.50301e-08
4.73405e-06
9.04439e-08
4.7479e-06
2.44153e-07
4.74668e-06
6.21641e-08
4.75428e-06
6.97278e-08
4.74722e-06
3.91412e-08
4.74307e-06
-3.34392e-08
4.74241e-06
2.85559e-10
4.7335e-06
9.70929e-09
4.72734e-06
3.36463e-09
4.72422e-06
3.63229e-08
4.72008e-06
6.90533e-08
4.71843e-06
8.89879e-08
4.72029e-06
1.08449e-07
1.25984e-07
4.72364e-06
4.96294e-06
-1.47049e-07
4.97614e-06
2.55128e-07
4.98173e-06
2.70943e-08
4.96896e-06
-1.86902e-07
4.95793e-06
-1.50383e-07
4.95554e-06
-3.26396e-08
4.96037e-06
8.56139e-08
4.97456e-06
2.29964e-07
4.97343e-06
6.32966e-08
4.98028e-06
6.28775e-08
4.97423e-06
4.51908e-08
4.96888e-06
-2.80876e-08
4.9682e-06
9.68473e-10
4.95964e-06
1.82677e-08
4.95285e-06
1.01479e-08
4.95034e-06
3.88347e-08
4.94686e-06
7.25359e-08
4.94508e-06
9.07672e-08
4.9467e-06
1.06833e-07
1.22335e-07
4.95035e-06
5.2007e-06
-1.41435e-07
5.21325e-06
2.42577e-07
5.21934e-06
2.10029e-08
5.20692e-06
-1.74479e-07
5.19545e-06
-1.38908e-07
5.19368e-06
-3.08762e-08
5.19759e-06
8.1707e-08
5.21181e-06
2.15742e-07
5.21113e-06
6.39767e-08
5.21699e-06
5.70186e-08
5.21175e-06
5.04363e-08
5.20545e-06
-2.1791e-08
5.20458e-06
1.84122e-09
5.19663e-06
2.62164e-08
5.18933e-06
1.74465e-08
5.18725e-06
4.09118e-08
5.18455e-06
7.52384e-08
5.1827e-06
9.26213e-08
5.18406e-06
1.05472e-07
1.18705e-07
5.18769e-06
5.44982e-06
-1.36062e-07
5.46174e-06
2.30649e-07
5.46811e-06
1.46395e-08
5.45653e-06
-1.62904e-07
5.44425e-06
-1.26623e-07
5.44322e-06
-2.98452e-08
5.44633e-06
7.85894e-08
5.46012e-06
2.01958e-07
5.46019e-06
6.39088e-08
5.46503e-06
5.21699e-08
5.46031e-06
5.51574e-08
5.45324e-06
-1.47148e-08
5.45216e-06
2.91898e-09
5.44503e-06
3.33489e-08
5.43733e-06
2.51467e-08
5.43546e-06
4.27835e-08
5.43367e-06
7.70261e-08
5.43179e-06
9.44938e-08
5.4329e-06
1.04369e-07
1.15282e-07
5.43632e-06
5.71081e-06
-1.30911e-07
5.7222e-06
2.1926e-07
5.72851e-06
8.32697e-09
5.71831e-06
-1.52701e-07
5.70494e-06
-1.13255e-07
5.70461e-06
-2.95181e-08
5.70727e-06
7.59346e-08
5.72003e-06
1.89188e-07
5.72096e-06
6.29849e-08
5.72499e-06
4.81416e-08
5.72053e-06
5.96116e-08
5.71281e-06
-6.99545e-09
5.71162e-06
4.10889e-09
5.70544e-06
3.95285e-08
5.69742e-06
3.31741e-08
5.6955e-06
4.47045e-08
5.69471e-06
7.78159e-08
5.69295e-06
9.62523e-08
5.69375e-06
1.03564e-07
1.12122e-07
5.69691e-06
5.98423e-06
-1.25951e-07
5.99521e-06
2.08278e-07
6.00107e-06
2.4716e-09
5.99271e-06
-1.4434e-07
5.97816e-06
-9.87075e-08
5.97831e-06
-2.96694e-08
5.981e-06
7.32485e-08
5.99224e-06
1.77949e-07
5.99381e-06
6.14092e-08
5.9974e-06
4.45539e-08
5.99304e-06
6.39722e-08
5.98478e-06
1.26499e-09
5.98353e-06
5.35456e-09
5.97845e-06
4.46099e-08
5.97025e-06
4.13751e-08
5.96797e-06
4.69834e-08
5.96814e-06
7.76484e-08
5.96675e-06
9.76396e-08
5.9672e-06
1.03112e-07
1.09243e-07
5.97008e-06
6.27067e-06
-1.21133e-07
6.28141e-06
1.97542e-07
6.28638e-06
-2.49832e-09
6.28016e-06
-1.38119e-07
6.26464e-06
-8.31875e-08
6.2648e-06
-2.98337e-08
6.26806e-06
6.99841e-08
6.27746e-06
1.68553e-07
6.27925e-06
5.96216e-08
6.28273e-06
4.10726e-08
6.27851e-06
6.81908e-08
6.26972e-06
1.00521e-08
6.26841e-06
6.66741e-09
6.26459e-06
4.84309e-08
6.25648e-06
4.94882e-08
6.25357e-06
4.98935e-08
6.25449e-06
7.673e-08
6.25377e-06
9.83583e-08
6.2539e-06
1.02981e-07
1.06696e-07
6.25644e-06
6.57073e-06
-1.16397e-07
6.5814e-06
1.86873e-07
6.5851e-06
-6.19611e-09
6.58109e-06
-1.34108e-07
6.56517e-06
-6.7273e-08
6.56466e-06
-2.93223e-08
6.56894e-06
6.57038e-08
6.57653e-06
1.60966e-07
6.57785e-06
5.83059e-08
6.58149e-06
3.74307e-08
6.5777e-06
7.19814e-08
6.56843e-06
1.9323e-08
6.56682e-06
8.2693e-09
6.5644e-06
5.08578e-08
6.5567e-06
5.71831e-08
6.55303e-06
5.35699e-08
6.55435e-06
7.54074e-08
6.55452e-06
9.81837e-08
6.55449e-06
1.03017e-07
1.04536e-07
6.55665e-06
6.88506e-06
-1.11667e-07
6.89583e-06
1.76102e-07
6.89797e-06
-8.33048e-09
6.89603e-06
-1.32172e-07
6.88056e-06
-5.18004e-08
6.87861e-06
-2.73708e-08
6.88408e-06
6.02298e-08
6.89028e-06
1.54769e-07
6.8904e-06
5.81812e-08
6.89436e-06
3.34713e-08
6.89147e-06
7.48762e-08
6.88169e-06
2.90966e-08
6.87948e-06
1.04828e-08
6.87841e-06
5.19269e-08
6.87152e-06
6.40729e-08
6.86711e-06
5.79837e-08
6.86843e-06
7.40807e-08
6.86956e-06
9.70553e-08
6.8696e-06
1.02975e-07
1.02753e-07
6.87139e-06
7.21433e-06
-1.06866e-07
7.22533e-06
1.65105e-07
7.22576e-06
-8.76103e-09
7.22557e-06
-1.31976e-07
7.21154e-06
-3.77791e-08
7.20745e-06
-2.3279e-08
7.21396e-06
5.37265e-08
7.21949e-06
1.49237e-07
7.2179e-06
5.97686e-08
7.22196e-06
2.94075e-08
7.22046e-06
7.63831e-08
7.21039e-06
3.91589e-08
7.20717e-06
1.37119e-08
7.20722e-06
5.18765e-08
7.20152e-06
6.97703e-08
7.19655e-06
6.29506e-08
7.19753e-06
7.31069e-08
7.1995e-06
9.50828e-08
7.19987e-06
1.02605e-07
1.01259e-07
7.20136e-06
7.55927e-06
-1.01906e-07
7.57056e-06
1.53809e-07
7.56932e-06
-7.51913e-09
7.57036e-06
-1.3301e-07
7.55878e-06
-2.62058e-08
7.5521e-06
-1.65952e-08
7.55918e-06
4.66488e-08
7.5648e-06
1.43614e-07
7.56147e-06
6.30968e-08
7.56491e-06
2.59696e-08
7.56518e-06
7.61133e-08
7.55532e-06
4.90167e-08
7.55075e-06
1.8288e-08
7.55152e-06
5.10974e-08
7.54729e-06
7.40009e-08
7.54208e-06
6.81648e-08
7.54244e-06
7.27437e-08
7.54504e-06
9.24851e-08
7.54592e-06
1.01729e-07
9.99201e-08
7.54726e-06
7.92061e-06
-9.67065e-08
7.93232e-06
1.421e-07
7.92952e-06
-4.71582e-09
7.93112e-06
-1.34616e-07
7.92268e-06
-1.77669e-08
7.9135e-06
-7.41476e-09
7.92044e-06
3.97086e-08
7.9268e-06
1.37254e-07
7.92209e-06
6.7812e-08
7.9241e-06
2.39611e-08
7.92612e-06
7.40867e-08
7.91712e-06
5.80227e-08
7.91118e-06
2.42224e-08
7.91214e-06
5.01439e-08
7.90948e-06
7.66535e-08
7.90441e-06
7.3235e-08
7.90402e-06
7.3137e-08
7.90697e-06
8.9536e-08
7.90845e-06
1.00247e-07
9.86176e-08
7.90975e-06
8.29916e-06
-9.11867e-08
8.31146e-06
1.29805e-07
8.30724e-06
-5.03847e-10
8.30863e-06
-1.35999e-07
8.30369e-06
-1.28304e-08
8.29265e-06
3.62647e-09
8.29852e-06
3.38357e-08
8.30604e-06
1.29738e-07
8.30056e-06
7.32899e-08
8.30057e-06
2.39559e-08
8.30395e-06
7.07062e-08
8.29638e-06
6.55879e-08
8.28939e-06
3.12106e-08
8.28994e-06
4.95965e-08
8.28878e-06
7.7816e-08
8.28427e-06
7.77461e-08
8.28311e-06
7.42976e-08
8.2861e-06
8.65394e-08
8.28824e-06
9.81113e-08
9.72683e-08
8.28959e-06
8.69576e-06
-8.52804e-08
8.70881e-06
1.16747e-07
8.70338e-06
4.92781e-09
8.70369e-06
-1.36306e-07
8.70236e-06
-1.14957e-08
8.69048e-06
1.54974e-08
8.69433e-06
2.99927e-08
8.70309e-06
1.20978e-07
8.69764e-06
7.87406e-08
8.69542e-06
2.61723e-08
8.69945e-06
6.66775e-08
8.69373e-06
7.13035e-08
8.68617e-06
3.87746e-08
8.68595e-06
4.98186e-08
8.68595e-06
7.781e-08
8.68235e-06
8.13515e-08
8.68059e-06
7.60537e-08
8.6833e-06
8.38324e-08
8.68608e-06
9.53342e-08
9.57844e-08
8.68756e-06
9.11129e-06
-7.89467e-08
9.12517e-06
1.02863e-07
9.11882e-06
1.12792e-08
9.11722e-06
-1.34711e-07
9.11936e-06
-1.36381e-08
9.1079e-06
2.69593e-08
9.10894e-06
2.89579e-08
9.11862e-06
1.11295e-07
9.114e-06
8.33624e-08
9.10975e-06
3.04194e-08
9.11361e-06
6.28174e-08
9.10983e-06
7.50895e-08
9.10231e-06
4.62914e-08
9.10118e-06
5.09505e-08
9.1019e-06
7.70908e-08
9.0994e-06
8.38495e-08
9.09735e-06
7.81039e-08
9.09949e-06
8.16874e-08
9.10279e-06
9.20379e-08
9.40302e-08
9.10454e-06
9.54669e-06
-7.21788e-08
9.56135e-06
8.82056e-08
9.55447e-06
1.81617e-08
9.55035e-06
-1.30594e-07
9.55552e-06
-1.88105e-08
9.54568e-06
3.68058e-08
9.54355e-06
3.10827e-08
9.55342e-06
1.01423e-07
9.55036e-06
8.64233e-08
9.5446e-06
3.618e-08
9.54751e-06
5.99053e-08
9.54549e-06
7.71103e-08
9.53856e-06
5.3227e-08
9.5366e-06
5.29116e-08
9.53762e-06
7.60665e-08
9.53622e-06
8.52525e-08
9.53422e-06
8.01e-08
9.53569e-06
8.02142e-08
9.53925e-06
8.8478e-08
9.18472e-08
9.54144e-06
1.0003e-05
-6.50251e-08
1.00182e-05
7.29916e-08
1.00113e-05
2.50438e-08
1.00043e-05
-1.23586e-07
1.00117e-05
-2.62528e-08
1.00045e-05
4.40373e-08
9.99946e-06
3.61366e-08
1.00085e-05
9.23486e-08
1.00074e-05
8.75358e-08
1.00009e-05
4.27087e-08
1.00024e-05
5.84236e-08
1.00017e-05
7.77919e-08
9.99567e-06
5.92551e-08
9.99316e-06
5.54178e-08
9.99421e-06
7.50234e-08
9.99373e-06
8.57317e-08
9.99207e-06
8.17538e-08
9.99293e-06
7.93522e-08
9.99644e-06
8.49744e-08
8.91383e-08
9.99915e-06
1.04812e-05
-5.75955e-08
1.04966e-05
5.76329e-08
1.04904e-05
3.12204e-08
1.04803e-05
-1.13544e-07
1.0489e-05
-3.48946e-08
1.04851e-05
4.79231e-08
1.04779e-05
4.33588e-08
1.04852e-05
8.50239e-08
1.0486e-05
8.67874e-08
1.04795e-05
4.91469e-08
1.04795e-05
5.84581e-08
1.04795e-05
7.78191e-08
1.04745e-05
6.41632e-08
1.04718e-05
5.8174e-08
1.04727e-05
7.41028e-08
1.0473e-05
8.54926e-08
1.04718e-05
8.29082e-08
1.04722e-05
7.8912e-08
1.04754e-05
8.18074e-08
8.59367e-08
1.04786e-05
1.09825e-05
-5.00629e-08
1.09974e-05
4.27083e-08
1.09927e-05
3.58932e-08
1.09798e-05
-1.00599e-07
1.09883e-05
-4.33787e-08
1.09882e-05
4.79964e-08
1.09799e-05
5.16435e-08
1.09847e-05
8.02247e-08
1.09869e-05
8.46321e-08
1.09813e-05
5.46705e-08
1.098e-05
5.98365e-08
1.098e-05
7.77688e-08
1.09762e-05
6.803e-08
1.09735e-05
6.08589e-08
1.09742e-05
7.33562e-08
1.0975e-05
8.47071e-08
1.09744e-05
8.35271e-08
1.09746e-05
7.86796e-08
1.09773e-05
7.91247e-08
8.2437e-08
1.09808e-05
1.15079e-05
-4.26439e-08
1.15218e-05
2.88608e-08
1.15193e-05
3.83895e-08
1.1504e-05
-8.52912e-08
1.15108e-05
-5.01544e-08
1.15146e-05
4.41855e-08
1.15066e-05
5.95797e-08
1.15085e-05
7.83971e-08
1.15113e-05
8.18267e-08
1.15071e-05
5.87929e-08
1.15049e-05
6.20616e-08
1.15047e-05
7.79762e-08
1.15016e-05
7.11531e-08
1.14992e-05
6.32745e-08
1.14998e-05
7.27123e-08
1.1501e-05
8.35464e-08
1.15009e-05
8.36001e-08
1.15011e-05
7.84932e-08
1.15033e-05
7.69239e-08
7.88978e-08
1.15068e-05
1.20587e-05
-3.55671e-08
1.20709e-05
1.66852e-08
1.2071e-05
3.83462e-08
1.20542e-05
-6.85077e-08
1.20579e-05
-5.38264e-08
1.20651e-05
3.68964e-08
1.20589e-05
6.57951e-08
1.2058e-05
7.9362e-08
1.20604e-05
7.93888e-08
1.20577e-05
6.14522e-08
1.20555e-05
6.43497e-08
1.20548e-05
7.86707e-08
1.20522e-05
7.37521e-08
1.205e-05
6.54579e-08
1.20507e-05
7.20219e-08
1.20521e-05
8.21293e-08
1.20525e-05
8.31673e-08
1.20528e-05
7.82073e-08
1.20546e-05
7.51347e-08
7.55412e-08
1.20579e-05
1.26361e-05
-2.90414e-08
1.26461e-05
6.61924e-09
1.26487e-05
3.58171e-08
1.26315e-05
-5.13952e-08
1.26313e-05
-5.35973e-08
1.26409e-05
2.734e-08
1.26376e-05
6.91041e-08
1.26345e-05
8.24346e-08
1.26357e-05
7.82177e-08
1.26343e-05
6.28418e-08
1.26324e-05
6.62138e-08
1.26315e-05
7.95851e-08
1.26291e-05
7.6141e-08
1.26271e-05
6.74277e-08
1.26278e-05
7.13321e-08
1.26296e-05
8.04045e-08
1.26304e-05
8.23384e-08
1.26309e-05
7.77057e-08
1.26324e-05
7.36368e-08
7.25142e-08
1.26354e-05
1.32411e-05
-2.32357e-08
1.32489e-05
-1.1588e-09
1.32535e-05
3.12722e-08
1.32372e-05
-3.51193e-08
1.3233e-05
-4.94103e-08
1.32431e-05
1.72181e-08
1.32433e-05
6.89204e-08
1.32393e-05
8.64658e-08
1.32388e-05
7.87027e-08
1.3238e-05
6.36635e-08
1.32368e-05
6.73517e-08
1.32361e-05
8.03094e-08
1.32339e-05
7.83613e-08
1.3232e-05
6.93438e-08
1.32326e-05
7.06861e-08
1.32346e-05
7.84138e-08
1.32358e-05
8.10919e-08
1.32365e-05
7.69964e-08
1.32379e-05
7.22547e-08
6.98931e-08
1.32406e-05
1.38752e-05
-1.82681e-08
1.38806e-05
-6.59372e-09
1.38866e-05
2.53457e-08
1.38721e-05
-2.06269e-08
1.38645e-05
-4.18365e-08
1.38733e-05
8.41824e-09
1.38768e-05
6.53682e-08
1.38734e-05
8.98786e-08
1.38712e-05
8.09342e-08
1.38702e-05
6.46827e-08
1.38699e-05
6.75918e-08
1.38696e-05
8.06656e-08
1.38678e-05
8.01308e-08
1.38659e-05
7.13063e-08
1.38663e-05
7.01958e-08
1.38685e-05
7.62792e-08
1.38702e-05
7.93864e-08
1.38711e-05
7.60677e-08
1.38725e-05
7.08725e-08
6.76145e-08
1.38748e-05
1.45396e-05
-1.41868e-08
1.45427e-05
-9.71311e-09
1.45493e-05
1.87313e-08
1.45372e-05
-8.54406e-09
1.45273e-05
-3.18858e-08
1.45332e-05
2.45483e-09
1.45395e-05
5.91459e-08
1.45379e-05
9.14441e-08
1.45345e-05
8.43257e-08
1.45328e-05
6.64311e-08
1.45329e-05
6.74473e-08
1.45333e-05
8.02389e-08
1.45321e-05
8.13805e-08
1.45303e-05
7.30662e-08
1.45305e-05
7.00062e-08
1.45326e-05
7.41672e-08
1.45347e-05
7.72659e-08
1.4536e-05
7.48486e-08
1.45374e-05
6.94778e-08
6.55254e-08
1.45395e-05
1.52357e-05
-1.09657e-08
1.52367e-05
-1.07163e-08
1.52432e-05
1.21987e-08
1.52339e-05
7.818e-10
1.52227e-05
-2.07006e-08
1.52251e-05
3.40776e-11
1.52326e-05
5.16453e-08
1.52335e-05
9.05991e-08
1.52301e-05
8.7652e-08
1.52274e-05
6.91506e-08
1.52274e-05
6.7457e-08
1.52285e-05
7.91108e-08
1.5228e-05
8.18717e-08
1.52266e-05
7.44697e-08
1.52267e-05
6.99636e-08
1.52286e-05
7.22653e-08
1.52309e-05
7.48933e-08
1.52326e-05
7.32357e-08
1.52339e-05
6.80929e-08
6.35058e-08
1.5236e-05
1.59649e-05
-8.50747e-09
1.59641e-05
-9.9471e-09
1.59698e-05
6.49881e-09
1.59633e-05
7.28909e-09
1.59519e-05
-9.28079e-09
1.5951e-05
8.73149e-10
1.59581e-05
4.4627e-08
1.59613e-05
8.73093e-08
1.59591e-05
8.99463e-08
1.59557e-05
7.24784e-08
1.59553e-05
6.78918e-08
1.59566e-05
7.77878e-08
1.5957e-05
8.14379e-08
1.59561e-05
7.53738e-08
1.59562e-05
6.98887e-08
1.5958e-05
7.05263e-08
1.59603e-05
7.25055e-08
1.59623e-05
7.12402e-08
1.59638e-05
6.66423e-08
6.15758e-08
1.59657e-05
1.67287e-05
-6.64683e-09
1.67267e-05
-7.93091e-09
1.67309e-05
2.30729e-09
1.67268e-05
1.13786e-08
1.67162e-05
1.32088e-09
1.67127e-05
4.44587e-09
1.6718e-05
3.92756e-08
1.67232e-05
8.21628e-08
1.67224e-05
9.06847e-08
1.67193e-05
7.55955e-08
1.67182e-05
6.89628e-08
1.67195e-05
7.65163e-08
1.67205e-05
8.04358e-08
1.67204e-05
7.55072e-08
1.67205e-05
6.97057e-08
1.67223e-05
6.88004e-08
1.67246e-05
7.01313e-08
1.67268e-05
6.90404e-08
1.67285e-05
6.49611e-08
5.97778e-08
1.67303e-05
1.75289e-05
-5.20311e-09
1.75263e-05
-5.33777e-09
1.75286e-05
5.61118e-11
1.75262e-05
1.37381e-08
1.75171e-05
1.0461e-08
1.75116e-05
9.96317e-09
1.75148e-05
3.60414e-08
1.75206e-05
7.63321e-08
1.75217e-05
8.96239e-08
1.75194e-05
7.79136e-08
1.7518e-05
7.03309e-08
1.7519e-05
7.54963e-08
1.75202e-05
7.92163e-08
1.75208e-05
7.49883e-08
1.75213e-05
6.91802e-08
1.7523e-05
6.70953e-08
1.75255e-05
6.76494e-08
1.75278e-05
6.67169e-08
1.75297e-05
6.30638e-08
5.79802e-08
1.75315e-05
1.83672e-05
-4.02569e-09
1.83644e-05
-2.59285e-09
1.83648e-05
-3.65914e-10
1.83634e-05
1.52111e-08
1.83559e-05
1.78977e-08
1.83496e-05
1.6319e-08
1.83506e-05
3.50065e-08
1.8356e-05
7.09283e-08
1.83586e-05
8.69976e-08
1.83574e-05
7.91749e-08
1.83562e-05
7.14859e-08
1.83569e-05
7.47787e-08
1.83583e-05
7.79098e-08
1.83591e-05
7.41663e-08
1.836e-05
6.82288e-08
1.83618e-05
6.53318e-08
1.83644e-05
6.50708e-08
1.83669e-05
6.41681e-08
1.8369e-05
6.10128e-08
5.60663e-08
1.83709e-05
1.92454e-05
-3.00161e-09
1.92426e-05
1.36285e-10
1.92417e-05