/*--------------------------------*- C++ -*----------------------------------*\
| =========                 |                                                 |
| \\      /  F ield         | OpenFOAM: The Open Source CFD Toolbox           |
|  \\    /   O peration     | Version:  2106                                  |
|   \\  /    A nd           | Website:  www.openfoam.com                      |
|    \\/     M anipulation  |                                                 |
\*---------------------------------------------------------------------------*/
FoamFile
{
    version     2.0;
    format      ascii;
    arch        "LSB;label=32;scalar=64";
    class       volScalarField;
    location    "0.21";
    object      p;
}
// * * * * * * * * * * * * * * * * * * * * * * * * * * * * * * * * * * * * * //

dimensions      [0 2 -2 0 0 0 0];

internalField   nonuniform List<scalar> 
9600
(
-1.08158e-10
0.00074648
0.000392929
0.000254189
-0.00016676
0.00113269
0.00041112
-0.000286573
0.000113365
-0.000249352
0.000258823
0.00109311
-1.24083e-05
-0.00081264
-0.0027989
-0.00138832
-0.00270868
9.28219e-05
0.00106784
0.00372139
2.00704e-06
0.000743488
0.000395007
0.00025355
-0.000157502
0.0011288
0.000414417
-0.000290662
0.000107547
-0.000241765
0.000264544
0.00107934
-7.74209e-06
-0.0008293
-0.00268598
-0.00140289
-0.00257768
5.54211e-05
0.00110212
0.00352168
3.67851e-06
0.000740478
0.000397724
0.00025209
-0.000146924
0.00112213
0.000417942
-0.000293242
0.00010169
-0.000228292
0.000265649
0.00106019
-2.07581e-06
-0.00085458
-0.00257402
-0.00141599
-0.00244679
1.42227e-06
0.00112688
0.00325849
5.44052e-06
0.000738048
0.000400219
0.000249942
-0.000134653
0.00111325
0.000420139
-0.000289406
9.31865e-05
-0.000211955
0.000264343
0.00103742
3.7225e-06
-0.000888469
-0.00245763
-0.0014253
-0.00232499
-4.98614e-05
0.00112914
0.003003
7.50988e-06
0.000736008
0.000402503
0.000247033
-0.000120111
0.00110213
0.00042229
-0.000281502
8.1944e-05
-0.000193191
0.000262229
0.00101178
9.96974e-06
-0.000926277
-0.0023361
-0.00143272
-0.00219925
-9.6647e-05
0.00110679
0.002765
9.88185e-06
0.000734271
0.000404628
0.000243413
-0.000103549
0.00108929
0.000424993
-0.000271617
6.98249e-05
-0.000173091
0.000260347
0.0009844
1.70938e-05
-0.000964758
-0.00221259
-0.00143824
-0.00207243
-0.000140265
0.00106176
0.00254926
1.25131e-05
0.000732724
0.000406635
0.000239267
-8.54496e-05
0.00107549
0.000428375
-0.000260797
5.79692e-05
-0.000152499
0.000259761
0.000955793
2.51706e-05
-0.00100277
-0.00208976
-0.00143902
-0.00195236
-0.0001809
0.000998574
0.00235064
1.53638e-05
0.000731231
0.00040861
0.000234789
-6.6246e-05
0.00106138
0.000432404
-0.00024968
4.7002e-05
-0.00013168
0.000260986
0.000926068
3.40976e-05
-0.00103989
-0.00196825
-0.00143362
-0.00184235
-0.00021466
0.000919632
0.00216016
1.84151e-05
0.000729679
0.000410672
0.000230104
-4.62451e-05
0.00104729
0.000436953
-0.000238613
3.72942e-05
-0.000110804
0.000264074
0.00089538
4.36288e-05
-0.00107544
-0.00184871
-0.0014216
-0.001743
-0.00023944
0.000823765
0.00197137
2.16679e-05
0.000727992
0.000412919
0.000225268
-2.5648e-05
0.00103335
0.000441914
-0.000227816
2.89793e-05
-9.00632e-05
0.000268897
0.00086397
5.34006e-05
-0.00110848
-0.00173239
-0.00140198
-0.00165482
-0.000255633
0.000711294
0.0017815
2.51344e-05
0.000726116
0.00041541
0.000220294
-4.58017e-06
0.00101962
0.00044724
-0.00021751
2.20039e-05
-6.9631e-05
0.000275228
0.000832141
6.29605e-05
-0.00113808
-0.00162046
-0.00137349
-0.00158136
-0.00026458
0.000586262
0.00158864
2.88329e-05
0.000724008
0.000418179
0.000215184
1.68839e-05
0.00100611
0.000452915
-0.000207931
1.62623e-05
-4.96658e-05
0.000282758
0.00080032
7.18003e-05
-0.00116341
-0.00151401
-0.00133527
-0.00151916
-0.000267736
0.000454383
0.00139045
3.2786e-05
0.000721632
0.000421243
0.000209938
3.86982e-05
0.000992848
0.000458933
-0.000199283
1.16786e-05
-3.02455e-05
0.000291101
0.000769041
7.9399e-05
-0.0011836
-0.00141407
-0.00128725
-0.00146875
-0.000267611
0.000321464
0.00118561
3.70184e-05
0.00071895
0.000424612
0.000204562
6.0832e-05
0.000979865
0.000465303
-0.000191686
8.27366e-06
-1.12931e-05
0.000299823
0.000738861
8.53131e-05
-0.00119804
-0.00132147
-0.00123005
-0.00142875
-0.000267917
0.000192943
0.000974569
4.15568e-05
0.000715924
0.000428298
0.000199071
8.3259e-05
0.00096718
0.000472032
-0.000185159
6.59064e-06
7.40306e-06
0.000308488
0.000710347
8.92391e-05
-0.00120651
-0.00123658
-0.00116448
-0.0013976
-0.000273198
7.29343e-05
0.000759094
4.64305e-05
0.000712515
0.000432311
0.000193485
0.000105952
0.000954814
0.000479115
-0.000179669
7.57952e-06
2.61845e-05
0.000316681
0.000684008
9.09775e-05
-0.00120896
-0.00115957
-0.00109183
-0.00137301
-0.00028739
-3.6404e-05
0.000541683
5.16711e-05
0.000708686
0.000436656
0.000187831
0.000128884
0.000942803
0.000486518
-0.000175131
6.62877e-06
4.54754e-05
0.00032402
0.000660253
9.04498e-05
-0.0012056
-0.0010902
-0.0010144
-0.00135258
-0.000312737
-0.000134096
0.000325368
5.73126e-05
0.000704397
0.000441336
0.000182138
0.000152014
0.00093121
0.000494166
-0.000171348
5.29871e-06
6.56919e-05
0.000330209
0.000639314
8.78787e-05
-0.00119718
-0.0010276
-0.000934393
-0.0013347
-0.000350198
-0.000220224
0.000113348
6.33935e-05
0.000699607
0.000446347
0.000176449
0.000175285
0.000920132
0.000501928
-0.000168047
3.44733e-06
8.72151e-05
0.000335117
0.000621158
8.37812e-05
-0.00118485
-0.000970649
-0.000853824
-0.0013184
-0.000399057
-0.000295904
-9.10577e-05
6.99549e-05
0.000694274
0.000451674
0.00017082
0.000198609
0.000909713
0.00050963
-0.000164913
6.74909e-07
0.000110306
0.000338797
0.000605485
7.89844e-05
-0.00116977
-0.000918675
-0.000774465
-0.00130292
-0.000457799
-0.000362468
-0.000284108
7.7041e-05
0.000688361
0.000457288
0.000165324
0.000221872
0.000900145
0.000517091
-0.00016162
-3.29881e-06
0.000135108
0.00034144
0.000591655
7.48031e-05
-0.00115303
-0.000871745
-0.000697079
-0.00128768
-0.0005254
-0.00042116
-0.000462064
8.47042e-05
0.000681827
0.000463138
0.000160055
0.000244945
0.000891664
0.000524086
-0.000157892
-1.28042e-05
0.000161664
0.000343495
0.000578651
7.25363e-05
-0.00113527
-0.000830238
-0.000621727
-0.00127209
-0.000601223
-0.000473208
-0.000621549
9.29971e-05
0.000674634
0.000469147
0.000155128
0.000267656
0.000884564
0.000530346
-0.000153451
-2.07945e-05
0.000189788
0.000345844
0.000565215
7.28729e-05
-0.00111658
-0.000794689
-0.000548641
-0.00125521
-0.000684468
-0.000520107
-0.000759477
0.000101969
0.000666362
0.000475211
0.000150669
0.000289775
0.000879182
0.00053564
-0.000148101
-3.03848e-05
0.000218994
0.000349704
0.000550255
7.59376e-05
-0.0010966
-0.000765917
-0.00047836
-0.00123544
-0.00077418
-0.000563867
-0.000873103
0.000111675
0.000657804
0.000481202
0.000146825
0.00031107
0.000875843
0.000539832
-0.000141827
-4.12197e-05
0.000248451
0.000356324
0.000533301
8.13085e-05
-0.00107443
-0.000744679
-0.000411763
-0.00121091
-0.000869209
-0.000607018
-0.000960479
0.000122188
0.000648654
0.000486939
0.000143779
0.000331316
0.000874788
0.000542971
-0.000134746
-5.26654e-05
0.000276905
0.000366486
0.000514442
8.79688e-05
-0.00104889
-0.000730944
-0.000350571
-0.00118012
-0.000967239
-0.000652296
-0.00102077
0.000133505
0.000638972
0.000492227
0.000141744
0.000350288
0.000876183
0.000545124
-0.000127129
-6.36755e-05
0.000303282
0.000380375
0.000494066
9.46273e-05
-0.00101926
-0.000724164
-0.000296641
-0.00114295
-0.00106524
-0.000702475
-0.00105423
0.000145658
0.000628826
0.000496835
0.000140926
0.000367789
0.00088015
0.000546407
-0.000119515
-7.28765e-05
0.000327141
0.00039781
0.000473079
9.99045e-05
-0.000985662
-0.000723303
-0.000251481
-0.00109624
-0.00116004
-0.000760366
-0.00106248
0.000158693
0.00061837
0.000500444
0.000141455
0.000383731
0.000886706
0.000547355
-0.000112638
-7.9681e-05
0.000348278
0.00041818
0.000452894
0.000102787
-0.000948814
-0.000726798
-0.000224143
-0.00104155
-0.00124794
-0.000828688
-0.00104946
0.000172577
0.000607859
0.000502765
0.000143356
0.000398132
0.000895712
0.000548679
-0.000107308
-8.42106e-05
0.000366824
0.000440472
0.000434674
0.00010304
-0.000909495
-0.0007331
-0.000198369
-0.000979218
-0.00132421
-0.000909278
-0.00102257
0.000187267
0.000597551
0.000503521
0.000146684
0.000411065
0.00090677
0.000551234
-0.000104085
-8.61542e-05
0.000383528
0.00046336
0.000418595
0.000100972
-0.000868329
-0.000741222
-0.000180986
-0.000909299
-0.00138319
-0.00100116
-0.000992366
0.000202686
0.000587724
0.000502455
0.000151387
0.000422741
0.000919296
0.00055599
-0.000103131
-8.58428e-05
0.00039958
0.00048582
0.000404304
9.72271e-05
-0.00082606
-0.000750117
-0.000173337
-0.000834114
-0.00142024
-0.00109887
-0.000969436
0.000218734
0.000578748
0.000499429
0.000157124
0.000433609
0.000932673
0.000563602
-0.0001043
-8.43893e-05
0.000416247
0.000507909
0.000391027
9.20738e-05
-0.00078321
-0.000758574
-0.000174682
-0.000757777
-0.00143328
-0.00119409
-0.00096015
0.000235253
0.000571054
0.000494427
0.000163404
0.000444262
0.000946265
0.000574473
-0.000106931
-8.39775e-05
0.000433904
0.000530659
0.00037753
8.48905e-05
-0.000739144
-0.000765386
-0.000184382
-0.000682679
-0.0014232
-0.00127973
-0.00096539
0.000251991
0.000565003
0.000487522
0.000169684
0.000455347
0.000959532
0.000588867
-0.000109928
-8.70765e-05
0.000451968
0.00055528
0.000363567
7.49533e-05
-0.000692939
-0.000768601
-0.000202952
-0.000611266
-0.00139179
-0.0013504
-0.0009838
0.000268756
0.000560944
0.000478956
0.000175273
0.000467461
0.000972158
0.000606537
-0.000111807
-9.49038e-05
0.000469286
0.000583096
0.000350243
6.06935e-05
-0.000645433
-0.000764733
-0.000228543
-0.000547811
-0.00134119
-0.00140069
-0.00101336
0.00028527
0.000559202
0.000469323
0.000179159
0.000481117
0.000984226
0.000626476
-0.000110801
-0.000107228
0.000483701
0.000615049
0.000339271
4.0474e-05
-0.000598938
-0.000750508
-0.0002583
-0.000496204
-0.00127675
-0.00142616
-0.00104852
0.000301289
0.000560003
0.000459377
0.000180281
0.00049638
0.000996375
0.000647539
-0.000105798
-0.00012601
0.000492609
0.000650556
0.000333063
1.47621e-05
-0.000556268
-0.000725693
-0.000285981
-0.00045518
-0.00120713
-0.00142668
-0.00107916
0.000316531
0.000563479
0.000450025
0.000177774
0.000512943
0.0010097
0.000668574
-9.64286e-05
-0.000147925
0.00049376
0.000687974
0.000334993
-1.42467e-05
-0.000520716
-0.00069245
-0.000302852
-0.000418716
-0.0011388
-0.00140843
-0.00109601
0.0003307
0.000569673
0.000442463
0.000170895
0.00053011
0.00102549
0.000688551
-8.28247e-05
-0.000167792
0.000486263
0.000724297
0.000347486
-4.353e-05
-0.000494481
-0.000653915
-0.000308389
-0.000380897
-0.00106926
-0.00138155
-0.00109699
0.000343628
0.000578419
0.000437938
0.000159425
0.000546296
0.00104521
0.000707419
-6.63644e-05
-0.00018158
0.000470753
0.000755166
0.000370085
-6.83976e-05
-0.000478015
-0.000613816
-0.000305085
-0.000337031
-0.00099044
-0.00135109
-0.00108824
0.000355177
0.000589309
0.000437677
0.000143516
0.000559383
0.00107019
0.000725901
-4.95894e-05
-0.000187034
0.000449697
0.000776865
0.000400377
-8.29594e-05
-0.000469899
-0.000576105
-0.000292118
-0.000288851
-0.000897495
-0.00130979
-0.00107828
0.000365245
0.000601858
0.00044279
0.000123884
0.000567123
0.00110088
0.000745508
-3.49895e-05
-0.000183415
0.000427882
0.000787893
0.000433873
-8.37995e-05
-0.000464755
-0.000543103
-0.000273318
-0.000238552
-0.000790926
-0.00124887
-0.00106604
0.000373844
0.000615446
0.000454203
0.000101731
0.000567073
0.00113685
0.000769086
-2.42725e-05
-0.000177366
0.000410279
0.000788843
0.000464618
-7.11377e-05
-0.000454188
-0.000518565
-0.00025687
-0.000188046
-0.000675511
-0.00116377
-0.00104264
0.000381081
0.000629176
0.000472626
7.87936e-05
0.000556806
0.00117688
0.00080024
-1.82103e-05
-0.000171738
0.000400752
0.000783234
0.000487649
-4.76996e-05
-0.000432361
-0.000497061
-0.000246504
-0.000143404
-0.000555247
-0.00105461
-0.00100333
0.000387129
0.000642302
0.00049844
5.73981e-05
0.000534608
0.00121836
0.000842291
-1.59062e-05
-0.00017114
0.000400251
0.000777974
0.000501261
-2.05358e-05
-0.000397309
-0.000464666
-0.000236766
-0.000112702
-0.000437698
-0.000923202
-0.000946068
0.000392323
0.000654285
0.000531492
4.01428e-05
0.000499852
0.00125732
0.000897506
-1.38972e-05
-0.000179615
0.00040781
0.000781064
0.000507111
1.90479e-06
-0.000345986
-0.00041232
-0.000221075
-9.7217e-05
-0.000337107
-0.000773518
-0.000865994
0.000397204
0.000664358
0.000570656
2.99059e-05
0.000452923
0.00128882
0.000966761
-6.78347e-06
-0.000199762
0.000415529
0.000797467
0.000510629
1.41551e-05
-0.000292659
-0.000340735
-0.000184852
-8.65249e-05
-0.000268244
-0.000619596
-0.000755623
0.000402388
0.000671457
0.000614726
2.95997e-05
0.000394837
0.00130764
0.00104964
1.21741e-05
-0.000233093
0.000416066
0.000829173
0.000521559
1.22716e-05
-0.000249502
-0.000254699
-0.00011781
-6.58233e-05
-0.00023177
-0.000488964
-0.000615398
0.000408543
0.000674904
0.00066183
4.1953e-05
0.000328428
0.00130879
0.00114324
5.02274e-05
-0.000278
0.000402262
0.000874941
0.000551511
1.66286e-06
-0.000226545
-0.000164437
-2.28926e-05
-1.50677e-05
-0.000207357
-0.000405468
-0.000466556
0.000416363
0.000674396
0.000709739
6.88452e-05
0.000258045
0.0012883
0.0012423
0.000113086
-0.00032786
0.000366482
0.000928127
0.000609345
-4.92725e-06
-0.000228013
-8.65681e-05
9.26533e-05
7.46944e-05
-0.000170196
-0.000364875
-0.000347942
0.000426451
0.000670024
0.000755424
0.000111146
0.000188658
0.00124381
0.00134031
0.000203883
-0.000372947
0.00030495
0.000976682
0.000697104
1.11415e-05
-0.000248513
-3.75571e-05
0.000218736
0.000200624
-9.61422e-05
-0.000338934
-0.000285647
0.00043944
0.000662142
0.000796231
0.000168805
0.000119676
0.00117507
0.00142912
0.000323069
-0.000401878
0.000219256
0.00100579
0.000810361
6.38684e-05
-0.000277707
-2.73584e-05
0.000334374
0.000355421
2.22052e-05
-0.000296489
-0.000265914
0.000455623
0.000651681
0.000829908
0.000241027
7.21046e-05
0.00108399
0.00149985
0.000467294
-0.000403392
0.000114206
0.00100369
0.000938349
0.000160164
-0.000294818
-5.23503e-05
0.000416762
0.000528685
0.00018384
-0.000215099
-0.000256606
0.000475126
0.000639795
0.000854498
0.000324755
4.17051e-05
0.000974737
0.00154491
0.000629267
-0.000368346
1.0385e-06
0.000963148
0.00106453
0.000298699
-0.000278513
-9.96845e-05
0.00044927
0.000696064
0.000384164
-8.91109e-05
-0.000226565
0.000497789
0.000628054
0.000868639
0.000414782
3.28988e-05
0.000854491
0.00155806
0.000798581
-0.000290878
-0.000104754
0.000883178
0.00117094
0.000473352
-0.000214693
-0.00014966
0.000430677
0.000827281
0.000612161
8.55432e-05
-0.00016013
0.000523096
0.000618314
0.000872146
0.000505919
4.86624e-05
0.00073263
0.00153572
0.000962436
-0.000169463
-0.000186198
0.000769881
0.00124141
0.000669563
-9.7708e-05
-0.000177045
0.000376132
0.000899147
0.000838882
0.000308747
-5.05958e-05
0.000550485
0.000611959
0.000865588
0.000592663
8.96755e-05
0.000619404
0.00147837
0.00110851
-8.39438e-06
-0.000229269
0.000634207
0.00126434
0.000865776
6.92116e-05
-0.000162328
0.000306345
0.000906233
0.00102756
0.000569549
0.000110817
0.000579043
0.000610102
0.000850652
0.000670451
0.000154329
0.000524168
0.0013896
0.00122572
0.000182064
-0.00022353
0.000494431
0.00123649
0.00104002
0.000277427
-9.47764e-05
0.000248093
0.000864845
0.0011501
0.000836012
0.00032704
0.000607845
0.000613406
0.000829992
0.00073616
0.00023844
0.000453354
0.0012777
0.00130589
0.000385665
-0.000165192
0.000372305
0.00116448
0.00117428
0.000507943
2.77817e-05
0.000222448
0.000798581
0.00119959
0.00106717
0.000587382
0.000636041
0.00062207
0.000807065
0.000787114
0.00033361
0.000411569
0.00115571
0.00134608
0.000584797
-5.56712e-05
0.000286117
0.0010609
0.00125688
0.000735583
0.000199284
0.000242211
0.00073504
0.00119402
0.00123374
0.000858462
0.000662902
0.000635884
0.000785517
0.00082288
0.000433773
0.000401198
0.00103699
0.0013476
0.000764559
9.56735e-05
0.000247295
0.000946194
0.00128655
0.00093744
0.000407112
0.000313568
0.000695149
0.00115837
0.00132941
0.00109948
0.000688021
0.000654257
0.00076821
0.000844603
0.000530852
0.00042068
0.000932594
0.00131554
0.000913644
0.000272674
0.000260114
0.000842685
0.00127186
0.00109712
0.000628712
0.000433792
0.000691423
0.00111812
0.00137037
0.00128389
0.000711305
0.000676013
0.000756796
0.000854644
0.000619114
0.000463668
0.000850776
0.00125961
0.00102585
0.000457342
0.00032147
0.000768152
0.00122704
0.00120774
0.000840065
0.000592961
0.000730817
0.0010925
0.00137926
0.00140748
0.00073279
0.000700109
0.000752599
0.000856622
0.000694749
0.000524025
0.000796147
0.0011921
0.00110105
0.000633765
0.000423582
0.000732988
0.00117146
0.00127297
0.00102346
0.000773593
0.000812335
0.00109299
0.00137767
0.00148341
0.00075251
0.000724893
0.000755882
0.000854619
0.00075625
0.000593966
0.000769371
0.00112554
0.00114347
0.000789986
0.000551836
0.000739252
0.00112361
0.00130324
0.00116947
0.000955065
0.000927402
0.00112528
0.00138215
0.00153034
0.000770781
0.000749572
0.000765412
0.000852395
0.000804325
0.000665928
0.000767818
0.0010697
0.00116031
0.000919209
0.000690453
0.000782246
0.0010962
0.00131261
0.00127759
0.0011213
0.00106295
0.00118841
0.00140256
0.00156509
0.000787952
0.000773367
0.000779927
0.000852406
0.000840842
0.000734628
0.000787276
0.00103041
0.00116105
0.00102001
0.000826443
0.000854133
0.00109498
0.00131583
0.00135465
0.00126306
0.00120347
0.00127571
0.00144304
0.00160013
0.000804355
0.000795858
0.000797932
0.000856033
0.000868644
0.000796691
0.00082128
0.00100969
0.00115516
0.00109533
0.000950783
0.000943963
0.00111943
0.00132394
0.00141022
0.0013782
0.00133662
0.00137777
0.00150253
0.00164265
0.00082024
0.000816871
0.000817953
0.000863754
0.000890726
0.000850581
0.000863403
0.00100649
0.00115017
0.00115027
0.00105832
0.00104062
0.00116485
0.00134291
0.00145405
0.00147002
0.00145524
0.00148415
0.00157653
0.00169533
0.000835666
0.000836368
0.000838741
0.000875178
0.00090965
0.000896315
0.000908475
0.00101771
0.00115072
0.00119094
0.00114767
0.00113551
0.00122507
0.00137436
0.00149383
0.00154418
0.00155709
0.00158672
0.0016587
0.00175752
0.000850615
0.000854416
0.000859306
0.000889477
0.000927267
0.000934852
0.000952796
0.0010395
0.00115866
0.00122316
0.00122037
0.00122302
0.00129282
0.00141655
0.00153417
0.00160628
0.00164323
0.00168064
0.00174255
0.00182603
0.000864964
0.000871056
0.000878964
0.000905625
0.000944525
0.000967475
0.000994096
0.00106768
0.00117362
0.00125122
0.0012794
0.00130021
0.00136176
0.00146617
0.00157683
0.00166074
0.00171616
0.00176387
0.00182296
0.00189659
0.000878517
0.000886286
0.000897224
0.000922521
0.000961636
0.000995358
0.00103119
0.0010985
0.00119382
0.00127753
0.0013278
0.00136626
0.00142719
0.00151901
0.00162151
0.00171032
0.00177842
0.00183608
0.00189665
0.0019652
0.000891031
0.000900027
0.000913699
0.000939098
0.000978311
0.00101934
0.00106354
0.00112905
0.00121698
0.0013029
0.00136797
0.00142153
0.00148603
0.00157101
0.00166651
0.00175618
0.00183202
0.0018978
0.00196174
0.00202862
0.000902206
0.000912111
0.000928087
0.000954419
0.000993928
0.00103979
0.00109085
0.00115714
0.00124071
0.001327
0.00140155
0.00146684
0.00153653
0.00161875
0.00170934
0.00179807
0.00187806
0.00194967
0.00201729
0.00208447
0.000911709
0.000922287
0.000940109
0.000967701
0.00100774
0.00105678
0.00111295
0.00118103
0.0012625
0.00134866
0.00142911
0.00150296
0.00157779
0.00165967
0.00174733
0.00183471
0.00191664
0.001992
0.00206275
0.00213109
0.000919187
0.000930244
0.000949441
0.000978237
0.0010189
0.00107011
0.00112999
0.0012
0.00128055
0.00136637
0.0014503
0.00153018
0.00160952
0.00169222
0.00177834
0.00186455
0.00194721
0.00202473
0.00209763
0.00216713
0.000924103
0.000935547
0.000955843
0.000985779
0.00102717
0.00107992
0.00114247
0.00121428
0.00129464
0.00138017
0.00146611
0.00155002
0.00163289
0.00171681
0.00180223
0.00188751
0.00197041
0.00204943
0.00212423
0.0021951
0.000925856
0.000936552
0.000956264
0.000985935
0.00102705
0.00107992
0.00114329
0.00121579
0.00129592
0.00138091
0.00146727
0.00155284
0.0016376
0.00172251
0.00180781
0.00189252
0.00197513
0.00205445
0.00212994
0.0022015
0.00652277
0.00244085
-0.00400484
-0.00854391
-0.00923899
-0.00799579
-0.00646992
-0.00510871
-0.00415126
-0.00365849
-0.00338984
-0.00300155
-0.00247575
-0.00199353
-0.00152313
-0.00109988
-0.000811973
-0.000470291
1.80254e-07
0.00040938
0.000706958
0.00099387
0.00133888
0.00172823
0.00207208
0.00235509
0.00268003
0.00307292
0.00344738
0.00379057
0.00417865
0.00461212
0.00503038
0.00544515
0.00589112
0.00634321
0.00678604
0.00724068
0.00770299
0.00815967
0.00862508
0.00910476
0.00958224
0.010056
0.0105392
0.0110325
0.0115277
0.0120251
0.012529
0.0130399
0.0135561
0.0140781
0.0146067
0.0151424
0.0156852
0.0162354
0.0167933
0.0173594
0.0179337
0.0185165
0.0191082
0.019709
0.0203194
0.0209397
0.0215703
0.0222113
0.0228635
0.0235267
0.0242018
0.0248883
0.0255876
0.0262985
0.0270231
0.0277595
0.0285105
0.0292736
0.0300518
0.0308432
0.0316491
0.0324704
0.0333046
0.0341573
0.035021
0.0359057
0.0368014
0.0377171
0.0386484
0.0395942
0.0405634
0.0415413
0.0425466
0.0435629
0.0445999
0.0456603
0.0467301
0.0478307
0.0489437
0.0500724
0.0511757
0.0522838
0.00599932
0.00232978
-0.00390604
-0.00840491
-0.00915992
-0.00795704
-0.00644487
-0.00509057
-0.00413753
-0.00364774
-0.00338146
-0.00299477
-0.00246981
-0.00198839
-0.00151853
-0.00109548
-0.000808223
-0.000467217
3.1406e-06
0.000412238
0.000709478
0.000996045
0.00134079
0.00173002
0.00207377
0.00235652
0.00268119
0.00307396
0.00344834
0.00379134
0.00417925
0.00461267
0.00503086
0.00544551
0.00589141
0.00634347
0.00678625
0.00724084
0.00770314
0.00815978
0.00862515
0.00910482
0.00958229
0.010056
0.0105393
0.0110325
0.0115277
0.0120251
0.0125291
0.0130399
0.0135561
0.0140781
0.0146067
0.0151424
0.0156852
0.0162354
0.0167933
0.0173594
0.0179337
0.0185165
0.0191082
0.019709
0.0203194
0.0209397
0.0215703
0.0222113
0.0228635
0.0235267
0.0242018
0.0248883
0.0255876
0.0262985
0.0270231
0.0277595
0.0285105
0.0292736
0.0300518
0.0308432
0.0316491
0.0324704
0.0333046
0.0341573
0.035021
0.0359057
0.0368014
0.0377171
0.0386484
0.0395942
0.0405634
0.0415413
0.0425466
0.0435629
0.0445999
0.0456603
0.0467301
0.0478307
0.0489437
0.0500724
0.0511757
0.0522839
0.00544212
0.00219093
-0.00371203
-0.00813483
-0.00901897
-0.00790693
-0.00641952
-0.00507042
-0.00412142
-0.00363502
-0.00337098
-0.00298589
-0.00246243
-0.00198267
-0.00151383
-0.00109111
-0.000804435
-0.000463987
6.19726e-06
0.000415027
0.000711897
0.000998198
0.00134274
0.00173186
0.00207546
0.00235793
0.00268239
0.0030751
0.00344936
0.00379213
0.0041799
0.00461328
0.00503138
0.0054459
0.00589176
0.00634378
0.00678647
0.00724103
0.0077033
0.00815992
0.00862525
0.0091049
0.00958237
0.0100561
0.0105393
0.0110325
0.0115278
0.0120251
0.0125291
0.0130399
0.0135562
0.0140781
0.0146067
0.0151424
0.0156852
0.0162354
0.0167933
0.0173594
0.0179337
0.0185165
0.0191082
0.019709
0.0203194
0.0209397
0.0215703
0.0222113
0.0228635
0.0235267
0.0242018
0.0248883
0.0255876
0.0262985
0.0270231
0.0277595
0.0285105
0.0292736
0.0300518
0.0308432
0.0316491
0.0324704
0.0333046
0.0341573
0.035021
0.0359057
0.0368014
0.0377171
0.0386484
0.0395942
0.0405634
0.0415413
0.0425466
0.0435629
0.0445999
0.0456603
0.0467301
0.0478307
0.0489437
0.0500724
0.0511757
0.0522841
0.00491106
0.00206391
-0.00345099
-0.00777932
-0.00882115
-0.00783738
-0.00638419
-0.00504123
-0.004099
-0.0036181
-0.00335615
-0.00297231
-0.00245111
-0.00197431
-0.00150767
-0.00108569
-0.000799188
-0.000459171
1.02428e-05
0.00041832
0.000714922
0.00100121
0.00134552
0.00173432
0.0020777
0.00235998
0.00268427
0.00307684
0.00345088
0.00379339
0.00418099
0.00461426
0.00503221
0.00544658
0.00589234
0.00634427
0.00678686
0.00724134
0.00770359
0.00816015
0.00862543
0.00910505
0.00958249
0.0100562
0.0105394
0.0110326
0.0115278
0.0120251
0.0125291
0.0130399
0.0135562
0.0140781
0.0146067
0.0151424
0.0156852
0.0162354
0.0167933
0.0173594
0.0179337
0.0185165
0.0191082
0.019709
0.0203194
0.0209397
0.0215703
0.0222113
0.0228635
0.0235267
0.0242018
0.0248883
0.0255876
0.0262985
0.0270231
0.0277595
0.0285105
0.0292736
0.0300518
0.0308432
0.0316491
0.0324704
0.0333046
0.0341573
0.035021
0.0359057
0.0368014
0.0377171
0.0386484
0.0395942
0.0405634
0.0415413
0.0425466
0.0435629
0.0445999
0.0456603
0.0467301
0.0478307
0.0489437
0.0500724
0.0511758
0.0522843
0.0044097
0.00193866
-0.00317528
-0.00739882
-0.00860064
-0.00775878
-0.00634406
-0.00500604
-0.00407122
-0.00359679
-0.00333621
-0.00295297
-0.00243456
-0.00196196
-0.00149913
-0.00107863
-0.000791592
-0.000451694
1.59553e-05
0.000422421
0.000718926
0.00100569
0.00134975
0.00173786
0.00208093
0.00236327
0.00268747
0.00307967
0.00345336
0.00379563
0.00418298
0.00461598
0.00503367
0.00544784
0.00589345
0.00634519
0.00678757
0.00724193
0.0077041
0.00816059
0.00862579
0.00910534
0.00958271
0.0100564
0.0105395
0.0110327
0.0115279
0.0120252
0.0125291
0.01304
0.0135562
0.0140781
0.0146067
0.0151424
0.0156852
0.0162354
0.0167933
0.0173594
0.0179337
0.0185165
0.0191082
0.019709
0.0203194
0.0209397
0.0215703
0.0222113
0.0228635
0.0235267
0.0242018
0.0248883
0.0255876
0.0262985
0.0270231
0.0277595
0.0285105
0.0292736
0.0300518
0.0308432
0.0316491
0.0324704
0.0333046
0.0341573
0.035021
0.0359057
0.0368014
0.0377171
0.0386484
0.0395942
0.0405634
0.0415413
0.0425466
0.0435629
0.0445999
0.0456603
0.0467301
0.0478307
0.0489437
0.0500725
0.0511759
0.0522847
0.00393268
0.00179132
-0.00291286
-0.00701179
-0.00836588
-0.00767444
-0.00630288
-0.00496868
-0.0040405
-0.00357264
-0.00331279
-0.00292944
-0.00241378
-0.00194597
-0.00148817
-0.00106976
-0.000781421
-0.000441279
2.35949e-05
0.00042751
0.000724057
0.00101186
0.0013557
0.00174264
0.00208533
0.00236816
0.00269241
0.00308398
0.00345717
0.00379925
0.00418626
0.00461875
0.00503608
0.00545001
0.00589533
0.00634674
0.00678883
0.00724296
0.007705
0.00816139
0.00862646
0.00910585
0.00958312
0.0100567
0.0105398
0.011033
0.0115281
0.0120254
0.0125293
0.0130401
0.0135563
0.0140781
0.0146067
0.0151424
0.0156852
0.0162354
0.0167934
0.0173594
0.0179337
0.0185165
0.0191082
0.019709
0.0203194
0.0209397
0.0215703
0.0222113
0.0228635
0.0235267
0.0242018
0.0248883
0.0255876
0.0262985
0.0270231
0.0277595
0.0285105
0.0292736
0.0300518
0.0308432
0.0316491
0.0324704
0.0333046
0.0341573
0.035021
0.0359057
0.0368014
0.0377171
0.0386484
0.0395942
0.0405634
0.0415413
0.0425466
0.0435629
0.0445999
0.0456603
0.0467301
0.0478307
0.0489437
0.0500725
0.051176
0.0522852
0.00347394
0.00161252
-0.0026685
-0.00661702
-0.00811397
-0.00758256
-0.00626108
-0.00493032
-0.00400746
-0.00354621
-0.00328718
-0.00290354
-0.00239051
-0.00192759
-0.0014754
-0.00105937
-0.000769149
-0.000428487
3.29207e-05
0.000433613
0.0007303
0.00101962
0.00136325
0.00174857
0.00209085
0.0023747
0.00269921
0.00308986
0.00346244
0.00380444
0.00419101
0.00462275
0.00503959
0.00545325
0.00589817
0.0063491
0.00679077
0.00724458
0.0077064
0.00816267
0.00862755
0.00910669
0.00958378
0.0100573
0.0105404
0.0110334
0.0115284
0.0120256
0.0125295
0.0130403
0.0135564
0.0140782
0.0146068
0.0151425
0.0156852
0.0162354
0.0167934
0.0173594
0.0179337
0.0185165
0.0191082
0.019709
0.0203194
0.0209397
0.0215703
0.0222113
0.0228635
0.0235267
0.0242018
0.0248883
0.0255876
0.0262985
0.0270231
0.0277595
0.0285105
0.0292736
0.0300518
0.0308432
0.0316491
0.0324704
0.0333046
0.0341573
0.035021
0.0359057
0.0368014
0.0377171
0.0386484
0.0395942
0.0405634
0.0415413
0.0425466
0.0435629
0.0445999
0.0456603
0.0467301
0.0478307
0.0489437
0.0500725
0.0511762
0.0522857
0.00303407
0.00140986
-0.00243875
-0.00621223
-0.00784305
-0.007482
-0.00621898
-0.00489172
-0.00397233
-0.00351755
-0.00325985
-0.00287608
-0.00236566
-0.00190765
-0.00146128
-0.00104779
-0.000755442
-0.000414121
4.34723e-05
0.000440588
0.00073749
0.00102863
0.00137205
0.00175541
0.00209728
0.0023826
0.00270758
0.00309713
0.00346903
0.00381109
0.00419718
0.00462792
0.0050442
0.00545756
0.00590197
0.0063523
0.00679346
0.00724682
0.00770835
0.00816446
0.00862911
0.0091079
0.00958474
0.0100582
0.0105411
0.011034
0.0115289
0.012026
0.0125298
0.0130405
0.0135566
0.0140784
0.0146069
0.0151426
0.0156853
0.0162354
0.0167934
0.0173594
0.0179337
0.0185165
0.0191082
0.019709
0.0203194
0.0209397
0.0215703
0.0222113
0.0228635
0.0235267
0.0242018
0.0248883
0.0255876
0.0262985
0.0270231
0.0277595
0.0285105
0.0292736
0.0300518
0.0308432
0.0316491
0.0324704
0.0333046
0.0341573
0.035021
0.0359057
0.0368014
0.0377171
0.0386484
0.0395942
0.0405634
0.0415413
0.0425466
0.0435629
0.0445999
0.0456603
0.0467301
0.0478307
0.0489437
0.0500725
0.0511764
0.0522863
0.00262089
0.00119366
-0.0022256
-0.0058019
-0.00755438
-0.00737212
-0.00617654
-0.00485339
-0.00393534
-0.00348659
-0.00323078
-0.00284726
-0.00233953
-0.00188644
-0.00144602
-0.00103527
-0.000740775
-0.000398695
5.4943e-05
0.000448277
0.000745405
0.00103853
0.00138176
0.00176297
0.00210438
0.00239144
0.00271708
0.00310542
0.00347662
0.00381888
0.00420447
0.00463408
0.00504972
0.00546277
0.00590659
0.00635622
0.00679681
0.00724964
0.00771081
0.00816675
0.00863111
0.00910947
0.00958601
0.0100593
0.0105422
0.0110348
0.0115295
0.0120266
0.0125303
0.0130409
0.0135569
0.0140787
0.0146071
0.0151427
0.0156854
0.0162355
0.0167935
0.0173594
0.0179337
0.0185166
0.0191082
0.019709
0.0203194
0.0209397
0.0215703
0.0222113
0.0228635
0.0235267
0.0242018
0.0248883
0.0255876
0.0262985
0.0270231
0.0277595
0.0285105
0.0292736
0.0300518
0.0308432
0.0316491
0.0324704
0.0333046
0.0341573
0.035021
0.0359057
0.0368014
0.0377171
0.0386484
0.0395942
0.0405634
0.0415413
0.0425466
0.0435629
0.0445999
0.0456603
0.0467301
0.0478306
0.0489437
0.0500726
0.0511766
0.052287
0.00224216
0.000970096
-0.00203601
-0.00539283
-0.00724891
-0.00725086
-0.00613275
-0.00481564
-0.0038969
-0.00345332
-0.00319989
-0.00281706
-0.00231215
-0.00186403
-0.00142973
-0.00102197
-0.000725358
-0.000382393
6.7229e-05
0.000456583
0.000753869
0.0010491
0.00139219
0.00177113
0.00211201
0.00240095
0.00272736
0.00311445
0.00348491
0.00382746
0.00421257
0.00464097
0.00505592
0.00546866
0.00591181
0.00636069
0.00680067
0.00725291
0.00771367
0.00816943
0.00863349
0.00911135
0.00958753
0.0100607
0.0105434
0.0110358
0.0115303
0.0120273
0.0125309