/*--------------------------------*- C++ -*----------------------------------*\
| =========                 |                                                 |
| \\      /  F ield         | OpenFOAM: The Open Source CFD Toolbox           |
|  \\    /   O peration     | Version:  2106                                  |
|   \\  /    A nd           | Website:  www.openfoam.com                      |
|    \\/     M anipulation  |                                                 |
\*---------------------------------------------------------------------------*/
FoamFile
{
    version     2.0;
    format      ascii;
    arch        "LSB;label=32;scalar=64";
    class       surfaceScalarField;
    location    "0.21";
    object      phi;
}
// * * * * * * * * * * * * * * * * * * * * * * * * * * * * * * * * * * * * * //

dimensions      [0 3 -1 0 0 0 0];

oriented        oriented;

internalField   nonuniform List<scalar> 
19000
(
1.17535e-06
-1.27431e-08
1.16352e-06
4.65321e-08
1.1778e-06
-2.10623e-07
1.17069e-06
-1.62387e-07
1.1737e-06
-1.0866e-08
1.16e-06
3.13703e-07
1.17601e-06
5.95809e-07
1.14827e-06
3.26412e-07
1.14311e-06
-7.52889e-08
1.16374e-06
-1.72484e-07
1.17033e-06
-5.49307e-07
1.14161e-06
-5.42838e-07
1.15606e-06
-3.05998e-07
1.13349e-06
-4.47847e-07
1.16129e-06
-3.04971e-08
1.14436e-06
-8.40413e-08
1.15466e-06
-3.2332e-08
1.15204e-06
7.6896e-08
1.15007e-06
1.21933e-07
1.57904e-07
1.1285e-06
1.23024e-06
-1.87229e-08
1.2202e-06
5.65697e-08
1.23421e-06
-2.24633e-07
1.22809e-06
-1.56267e-07
1.22926e-06
-1.20283e-08
1.2196e-06
3.23357e-07
1.22795e-06
5.87461e-07
1.21231e-06
3.4205e-07
1.19987e-06
-6.28479e-08
1.2228e-06
-1.95416e-07
1.22654e-06
-5.5304e-07
1.20297e-06
-5.1927e-07
1.21002e-06
-3.13053e-07
1.19319e-06
-4.31015e-07
1.20969e-06
-4.69927e-08
1.21048e-06
-8.48318e-08
1.20056e-06
-2.24173e-08
1.22277e-06
5.46863e-08
1.19081e-06
1.53892e-07
1.38195e-07
1.21052e-06
1.28631e-06
-2.22521e-08
1.28078e-06
6.2101e-08
1.29176e-06
-2.35612e-07
1.28942e-06
-1.53926e-07
1.28661e-06
-9.21495e-09
1.28349e-06
3.26469e-07
1.28347e-06
5.87484e-07
1.27933e-06
3.46188e-07
1.26211e-06
-4.56251e-08
1.28227e-06
-2.15579e-07
1.28165e-06
-5.52418e-07
1.26762e-06
-5.05238e-07
1.26595e-06
-3.11387e-07
1.25856e-06
-4.23621e-07
1.26509e-06
-5.35218e-08
1.27638e-06
-9.61193e-08
1.26167e-06
-7.71368e-09
1.2774e-06
3.89539e-08
1.26194e-06
1.69358e-07
1.4579e-07
1.25434e-06
1.34455e-06
-2.27026e-08
1.34399e-06
6.26668e-08
1.35073e-06
-2.4235e-07
1.35279e-06
-1.55989e-07
1.34616e-06
-2.58546e-09
1.34784e-06
3.24792e-07
1.34393e-06
5.91386e-07
1.34585e-06
3.4427e-07
1.32909e-06
-2.88614e-08
1.34238e-06
-2.2887e-07
1.33872e-06
-5.4876e-07
1.33124e-06
-4.97756e-07
1.32574e-06
-3.05882e-07
1.32293e-06
-4.20819e-07
1.32721e-06
-5.77959e-08
1.33875e-06
-1.0766e-07
1.33051e-06
5.24161e-10
1.33514e-06
3.43282e-08
1.33248e-06
1.72015e-07
1.60036e-07
1.31823e-06
1.40611e-06
-2.04629e-08
1.40917e-06
5.96092e-08
1.41188e-06
-2.45061e-07
1.41669e-06
-1.60799e-07
1.40851e-06
5.59277e-09
1.41193e-06
3.21381e-07
1.4089e-06
5.94416e-07
1.41252e-06
3.40642e-07
1.39966e-06
-1.59987e-08
1.40552e-06
-2.34729e-07
1.39974e-06
-5.42978e-07
1.3955e-06
-4.93521e-07
1.38983e-06
-3.00211e-07
1.38798e-06
-4.18973e-07
1.39225e-06
-6.20581e-08
1.40167e-06
-1.1708e-07
1.39898e-06
3.2127e-09
1.39865e-06
3.46568e-08
1.39973e-06
1.70933e-07
1.72965e-07
1.3868e-06
1.47198e-06
-1.67716e-08
1.4765e-06
5.50939e-08
1.47631e-06
-2.44869e-07
1.48141e-06
-1.65899e-07
1.47401e-06
1.29888e-08
1.47725e-06
3.18139e-07
1.47753e-06
5.94138e-07
1.48139e-06
3.36787e-07
1.47282e-06
-7.43515e-09
1.47343e-06
-2.35341e-07
1.46533e-06
-5.3487e-07
1.46236e-06
-4.90556e-07
1.45769e-06
-2.95536e-07
1.45562e-06
-4.16908e-07
1.45958e-06
-6.60125e-08
1.46693e-06
-1.24431e-07
1.46723e-06
2.91234e-09
1.46517e-06
3.6714e-08
1.46793e-06
1.68174e-07
1.84436e-07
1.45646e-06
1.54248e-06
-1.30343e-08
1.54672e-06
5.08532e-08
1.54474e-06
-2.42891e-07
1.54834e-06
-1.69499e-07
1.54274e-06
1.85916e-08
1.54563e-06
3.15248e-07
1.54943e-06
5.90339e-07
1.55378e-06
3.32439e-07
1.54838e-06
-2.03271e-09
1.5462e-06
-2.33168e-07
1.53555e-06
-5.24218e-07
1.53258e-06
-4.87582e-07
1.52878e-06
-2.91739e-07
1.52639e-06
-4.14522e-07
1.53002e-06
-6.96363e-08
1.53533e-06
-1.29745e-07
1.53736e-06
8.83298e-10
1.53435e-06
3.97261e-08
1.53887e-06
1.63653e-07
1.94519e-07
1.52879e-06
1.61725e-06
-1.01586e-08
1.62052e-06
4.75874e-08
1.61739e-06
-2.39758e-07
1.61885e-06
-1.70963e-07
1.61482e-06
2.26252e-08
1.61813e-06
3.11932e-07
1.62475e-06
5.8372e-07
1.63004e-06
3.2715e-07
1.6266e-06
1.40542e-09
1.62318e-06
-2.29751e-07
1.61022e-06
-5.11257e-07
1.60644e-06
-4.838e-07
1.60297e-06
-2.88264e-07
1.60027e-06
-4.11821e-07
1.60397e-06
-7.33441e-08
1.60726e-06
-1.33031e-07
1.61059e-06
-2.44642e-09
1.60675e-06
4.35618e-08
1.61299e-06
1.57414e-07
2.02865e-07
1.60465e-06
1.69577e-06
-8.35591e-09
1.6982e-06
4.51569e-08
1.69413e-06
-2.3569e-07
1.69368e-06
-1.70508e-07
1.69055e-06
2.57541e-08
1.69505e-06
3.07436e-07
1.70376e-06
5.75007e-07
1.71002e-06
3.20894e-07
1.70771e-06
3.70833e-09
1.7038e-06
-2.25836e-07
1.68907e-06
-4.96531e-07
1.68418e-06
-4.78907e-07
1.68049e-06
-2.84572e-07
1.67722e-06
-4.08552e-07
1.6814e-06
-7.75285e-08
1.68272e-06
-1.34348e-07
1.68726e-06
-6.99128e-09
1.68274e-06
4.80829e-08
1.6903e-06
1.49857e-07
2.0916e-07
1.68401e-06
1.77775e-06
-7.38256e-09
1.7798e-06
4.3108e-08
1.77489e-06
-2.30781e-07
1.77306e-06
-1.68679e-07
1.77029e-06
2.85245e-08
1.77622e-06
3.01509e-07
1.78646e-06
5.64766e-07
1.79345e-06
3.13904e-07
1.79174e-06
5.41428e-09
1.7877e-06
-2.21797e-07
1.77189e-06
-4.8072e-07
1.76591e-06
-4.72931e-07
1.76171e-06
-2.80368e-07
1.7574e-06
-4.04243e-07
1.76216e-06
-8.22916e-08
1.76152e-06
-1.33703e-07
1.76719e-06
-1.26654e-08
1.76223e-06
5.30499e-08
1.7705e-06
1.41579e-07
2.13206e-07
1.76646e-06
1.86325e-06
-6.88221e-09
1.86529e-06
4.1067e-08
1.85967e-06
-2.25163e-07
1.85701e-06
-1.66013e-07
1.85428e-06
3.12534e-08
1.86138e-06
2.944e-07
1.87268e-06
5.53469e-07
1.88019e-06
3.06392e-07
1.87874e-06
6.87243e-09
1.87478e-06
-2.17839e-07
1.8586e-06
-4.6454e-07
1.85169e-06
-4.66021e-07
1.84695e-06
-2.75633e-07
1.8411e-06
-3.9839e-07
1.84625e-06
-8.74452e-08
1.84358e-06
-1.31026e-07
1.85007e-06
-1.91589e-08
1.84489e-06
5.82243e-08
1.85316e-06
1.33315e-07
2.14862e-07
1.8515e-06
1.95254e-06
-6.58668e-09
1.95475e-06
3.88565e-08
1.9486e-06
-2.19011e-07
1.9455e-06
-1.62915e-07
1.94265e-06
3.41043e-08
1.95044e-06
2.86609e-07
1.9624e-06
5.41518e-07
1.97035e-06
2.98437e-07
1.96894e-06
8.28205e-09
1.96513e-06
-2.14034e-07
1.94922e-06
-4.48624e-07
1.94149e-06
-4.58295e-07
1.93642e-06
-2.70556e-07
1.92867e-06
-3.90646e-07
1.93389e-06
-9.26639e-08
1.92914e-06
-1.26271e-07
1.93589e-06
-2.5912e-08
1.93067e-06
6.34465e-08
1.93806e-06
1.25921e-07
2.14052e-07
1.93887e-06
2.04595e-06
-6.35122e-09
2.04837e-06
3.64398e-08
2.04184e-06
-2.12477e-07
2.03857e-06
-1.59645e-07
2.03552e-06
3.71473e-08
2.04352e-06
2.78609e-07
2.05583e-06
5.29211e-07
2.06422e-06
2.90044e-07
2.0628e-06
9.70955e-09
2.05907e-06
-2.10309e-07
2.04386e-06
-4.33413e-07
2.03534e-06
-4.49779e-07
2.03022e-06
-2.65435e-07
2.02049e-06
-3.80912e-07
2.02549e-06
-9.76635e-08
2.01878e-06
-1.19557e-07
2.02512e-06
-3.22575e-08
2.01997e-06
6.8601e-08
2.0257e-06
1.20185e-07
2.109e-07
2.02885e-06
2.14376e-06
-6.1133e-09
2.14637e-06
3.38332e-08
2.13955e-06
-2.05653e-07
2.13624e-06
-1.56343e-07
2.13301e-06
4.03825e-08
2.14093e-06
2.70688e-07
2.15342e-06
5.16717e-07
2.16223e-06
2.81235e-07
2.16083e-06
1.11126e-08
2.157e-06
-2.06482e-07
2.1427e-06
-4.1911e-07
2.13334e-06
-4.40415e-07
2.12845e-06
-2.60554e-07
2.11689e-06
-3.69344e-07
2.12151e-06
-1.0229e-07
2.11319e-06
-1.11232e-07
2.11853e-06
-3.75991e-08
2.11362e-06
7.3507e-08
2.11722e-06
1.16591e-07
2.05775e-07
2.12234e-06
2.24622e-06
-5.84785e-09
2.249e-06
3.10552e-08
2.24192e-06
-1.98572e-07
2.23864e-06
-1.53063e-07
2.23526e-06
4.37617e-08
2.24301e-06
2.62937e-07
2.25564e-06
5.04089e-07
2.26476e-06
2.72113e-07
2.2635e-06
1.23741e-08
2.25934e-06
-2.02325e-07
2.24597e-06
-4.05737e-07
2.23567e-06
-4.30117e-07
2.23121e-06
-2.56096e-07
2.21815e-06
-3.56275e-07
2.22235e-06
-1.06496e-07
2.21295e-06
-1.01828e-07
2.21687e-06
-4.15229e-08
2.21251e-06
7.7868e-08
2.21392e-06
1.15183e-07
1.99231e-07
2.22046e-06
2.35357e-06
-5.5428e-09
2.35651e-06
2.81117e-08
2.34918e-06
-1.91239e-07
2.34593e-06
-1.49811e-07
2.34247e-06
4.72172e-08
2.35008e-06
2.55333e-07
2.36287e-06
4.91299e-07
2.37213e-06
2.62847e-07
2.37117e-06
1.33377e-08
2.36646e-06
-1.97616e-07
2.35395e-06
-3.93226e-07
2.34266e-06
-4.18822e-07
2.33866e-06
-2.52103e-07
2.32451e-06
-3.42119e-07
2.32826e-06
-1.10251e-07
2.31837e-06
-9.1935e-08
2.32067e-06
-4.38216e-08
2.31721e-06
8.13313e-08
2.31671e-06
1.15673e-07
1.91832e-07
2.32411e-06
2.46604e-06
-5.1908e-09
2.46916e-06
2.5e-08
2.46157e-06
-1.83651e-07
2.45832e-06
-1.46566e-07
2.45486e-06
5.06813e-08
2.46236e-06
2.47831e-07
2.47539e-06
4.78272e-07
2.4846e-06
2.53631e-07
2.4841e-06
1.38446e-08
2.47866e-06
-1.92182e-07
2.46692e-06
-3.81488e-07
2.45464e-06
-4.06539e-07
2.45101e-06
-2.48477e-07
2.4362e-06
-3.27305e-07
2.43942e-06
-1.13468e-07
2.42957e-06
-8.20926e-08
2.43019e-06
-4.44337e-08
2.4279e-06
8.36219e-08
2.42601e-06
1.1756e-07
1.84077e-07
2.43376e-06
2.58389e-06
-4.78773e-09
2.58717e-06
2.17164e-08
2.57934e-06
-1.75814e-07
2.57607e-06
-1.43295e-07
2.57266e-06
5.40916e-08
2.58006e-06
2.40423e-07
2.59342e-06
4.64914e-07
2.60241e-06
2.44645e-07
2.60249e-06
1.37592e-08
2.59622e-06
-1.85912e-07
2.58516e-06
-3.70426e-07
2.57199e-06
-3.93363e-07
2.56852e-06
-2.45007e-07
2.55345e-06
-3.12243e-07
2.55596e-06
-1.15978e-07
2.54657e-06
-7.2697e-08
2.5456e-06
-4.34634e-08
2.54452e-06
8.47041e-08
2.54185e-06
1.20224e-07
1.76395e-07
2.54953e-06
2.70737e-06
-4.33278e-09
2.71083e-06
1.82615e-08
2.70276e-06
-1.67747e-07
2.69943e-06
-1.39963e-07
2.69614e-06
5.73856e-08
2.70341e-06
2.33151e-07
2.7172e-06
4.51125e-07
2.72579e-06
2.36048e-07
2.72657e-06
1.29883e-08
2.71943e-06
-1.78772e-07
2.70892e-06
-3.59924e-07
2.69503e-06
-3.79473e-07
2.69144e-06
-2.41418e-07
2.67651e-06
-2.97307e-07
2.6781e-06
-1.17574e-07
2.6694e-06
-6.39904e-08
2.66706e-06
-4.1124e-08
2.66702e-06
8.4743e-08
2.66416e-06
1.23086e-07
1.69129e-07
2.67142e-06
2.83676e-06
-3.82825e-09
2.84038e-06
1.46412e-08
2.83212e-06
-1.59482e-07
2.82868e-06
-1.36525e-07
2.82557e-06
6.04962e-08
2.83263e-06
2.26091e-07
2.84695e-06
4.36805e-07
2.85503e-06
2.27966e-07
2.85652e-06
1.14959e-08
2.84857e-06
-1.70813e-07
2.83846e-06
-3.4982e-07
2.82411e-06
-3.65122e-07
2.82009e-06
-2.37398e-07
2.80558e-06
-2.82794e-07
2.80612e-06
-1.18112e-07
2.79815e-06
-5.60208e-08
2.79474e-06
-3.7716e-08
2.7955e-06
8.39822e-08
2.79285e-06
1.2573e-07
1.62483e-07
2.7995e-06
2.97235e-06
-3.27941e-09
2.97612e-06
1.08687e-08
2.9677e-06
-1.51064e-07
2.9641e-06
-1.32928e-07
2.96125e-06
6.33484e-08
2.968e-06
2.19345e-07
2.98294e-06
4.21866e-07
2.99042e-06
2.20485e-07
2.99261e-06
9.30596e-09
2.98395e-06
-1.62158e-07
2.97403e-06
-3.39899e-07
2.95953e-06
-3.50615e-07
2.95477e-06
-2.32641e-07
2.94089e-06
-2.68915e-07
2.94033e-06
-1.17547e-07
2.93298e-06
-4.86755e-08
2.92882e-06
-3.35592e-08
2.93018e-06
8.26233e-08
2.928e-06
1.27918e-07
1.56542e-07
2.93394e-06
3.11442e-06
-2.6944e-09
3.11833e-06
6.9645e-09
3.10981e-06
-1.42552e-07
3.10599e-06
-1.29107e-07
3.10348e-06
6.5861e-08
3.10981e-06
2.13015e-07
3.12544e-06
4.0624e-07
3.13228e-06
2.13643e-07
3.13508e-06
6.50748e-09
3.12592e-06
-1.53006e-07
3.11591e-06
-3.29887e-07
3.10158e-06
-3.36288e-07
3.09583e-06
-2.26883e-07
3.08267e-06
-2.55762e-07
3.08111e-06
-1.1598e-07
3.07417e-06
-4.17383e-08
3.06953e-06
-2.89175e-08
3.07137e-06
8.07814e-08
3.06974e-06
1.29544e-07
1.51308e-07
3.07498e-06
3.2633e-06
-2.08423e-09
3.26731e-06
2.95815e-09
3.25877e-06
-1.34017e-07
3.25465e-06
-1.24984e-07
3.25256e-06
6.79495e-08
3.25838e-06
2.07196e-07
3.27473e-06
3.89892e-07
3.28094e-06
2.07427e-07
3.2842e-06
3.25454e-09
3.27482e-06
-1.43626e-07
3.2644e-06
-3.1947e-07
3.25056e-06
-3.22454e-07
3.24364e-06
-2.19954e-07
3.23113e-06
-2.43259e-07
3.22881e-06
-1.13655e-07
3.22208e-06
-3.5008e-08
3.21708e-06
-2.39194e-08
3.21938e-06
7.84835e-08
3.21836e-06
1.3056e-07
1.46758e-07
3.22291e-06
3.41931e-06
-1.46281e-09
3.42338e-06
-1.11047e-09
3.41491e-06
-1.25549e-07
3.4104e-06
-1.20475e-07
3.40882e-06
6.95325e-08
3.41405e-06
2.0196e-07
3.4311e-06
3.72845e-07
3.43677e-06
2.01754e-07
3.44027e-06
-2.39204e-10
3.43096e-06
-1.34322e-07
3.41984e-06
-3.08343e-07
3.40672e-06
-3.09337e-07
3.39861e-06
-2.11846e-07
3.38651e-06
-2.31156e-07
3.38372e-06
-1.1086e-07
3.37714e-06
-2.84339e-08
3.37175e-06
-1.85252e-08
3.37452e-06
7.57136e-08
3.37417e-06
1.30911e-07
1.42877e-07
3.37805e-06
3.5828e-06
-8.47073e-10
3.58687e-06
-5.18923e-09
3.57858e-06
-1.17251e-07
3.57359e-06
-1.15489e-07
3.57258e-06
7.05379e-08
3.5772e-06
1.97346e-07
3.59486e-06
3.55184e-07
3.60014e-06
1.96476e-07
3.60361e-06
-3.7113e-09
3.59471e-06
-1.25422e-07
3.5826e-06
-2.96234e-07
3.57028e-06
-2.97018e-07
3.56119e-06
-2.02758e-07
3.54915e-06
-2.19106e-07
3.54612e-06
-1.07836e-07
3.53975e-06
-2.20591e-08
3.53393e-06
-1.27064e-08
3.5371e-06
7.25401e-08
3.53752e-06
1.30491e-07
1.39662e-07
3.54073e-06
3.75412e-06
-2.5729e-10
3.75814e-06
-9.21202e-09
3.75013e-06
-1.09242e-07
3.74458e-06
-1.09937e-07
3.7442e-06
7.09124e-08
3.7482e-06
1.93351e-07
3.76632e-06
3.37063e-07
3.77142e-06
1.91376e-07
3.77457e-06
-6.8651e-09
3.76639e-06
-1.17236e-07
3.75311e-06
-2.82962e-07
3.7415e-06
-2.85409e-07
3.73178e-06
-1.93031e-07
3.71945e-06
-2.06781e-07
3.71632e-06
-1.04708e-07
3.71028e-06
-1.6011e-08
3.70404e-06
-6.46947e-09
3.70744e-06
6.91341e-08
3.70878e-06
1.29152e-07
1.37088e-07
3.71136e-06
3.93365e-06
2.82875e-10
3.93753e-06
-1.30988e-08
3.92994e-06
-1.01648e-07
3.92375e-06
-1.03747e-07
3.92403e-06
7.0631e-08
3.92746e-06
1.89919e-07
3.94581e-06
3.18716e-07
3.951e-06
1.86186e-07
3.95354e-06
-9.40814e-09
3.94628e-06
-1.0997e-07
3.93187e-06
-2.68556e-07
3.92067e-06
-2.74212e-07
3.91072e-06
-1.83075e-07
3.89792e-06
-1.93985e-07
3.89464e-06
-1.01425e-07
3.8891e-06
-1.04684e-08
3.88252e-06
1.02624e-10
3.8859e-06
6.57544e-08
3.8883e-06
1.26752e-07
1.35055e-07
3.89034e-06
4.12179e-06
7.45791e-10
4.12544e-06
-1.67531e-08
4.11839e-06
-9.4599e-08
4.11152e-06
-9.68694e-08
4.11244e-06
6.97088e-08
4.11542e-06
1.86935e-07
4.1337e-06
3.00437e-07
4.13928e-06
1.80604e-07
4.14095e-06
-1.10717e-08
4.13466e-06
-1.03688e-07
4.11936e-06
-2.53247e-07
4.10818e-06
-2.63036e-07
4.09835e-06
-1.73246e-07
4.08505e-06
-1.80686e-07
4.08145e-06
-9.7825e-08
4.07657e-06
-5.58961e-09
4.06981e-06
6.8628e-09
4.07289e-06
6.26793e-08
4.07642e-06
1.23223e-07
1.33351e-07
4.07812e-06
4.31895e-06
1.10081e-09
4.32226e-06
-2.00666e-08
4.31588e-06
-8.8219e-08
4.30831e-06
-8.92946e-08
4.30981e-06
6.82082e-08
4.31251e-06
1.84232e-07
4.33038e-06
2.82563e-07
4.33665e-06
1.74336e-07
4.33725e-06
-1.16688e-08
4.33185e-06
-9.82847e-08
4.31602e-06
-2.37425e-07
4.30449e-06
-2.51503e-07
4.29499e-06
-1.63747e-07
4.28132e-06
-1.67014e-07
4.27723e-06
-9.37325e-08
4.27308e-06
-1.43787e-09
4.26634e-06
1.3594e-08
4.26888e-06
6.01483e-08
4.27346e-06
1.18634e-07
1.31655e-07
4.27516e-06
4.52556e-06
1.3154e-09
4.52842e-06
-2.2925e-08
4.5228e-06
-8.26064e-08
4.51458e-06
-8.10713e-08
4.51654e-06
6.62491e-08
4.51919e-06
1.81588e-07
4.53631e-06
2.65438e-07
4.54348e-06
1.67163e-07
4.54297e-06
-1.11515e-08
4.53818e-06
-9.35001e-08
4.52229e-06
-2.21537e-07
4.51015e-06
-2.39359e-07
4.50096e-06
-1.54561e-07
4.48719e-06
-1.53241e-07
4.48246e-06
-8.90007e-08
4.47901e-06
2.00466e-09
4.47254e-06
2.00661e-08
4.47437e-06
5.83162e-08
4.47981e-06
1.13199e-07
1.29588e-07
4.48188e-06
4.74207e-06
1.35604e-09
4.74436e-06
-2.52105e-08
4.73958e-06
-7.78287e-08
4.73083e-06
-7.23173e-08
4.73307e-06
6.40093e-08
4.7359e-06
1.78755e-07
4.75198e-06
2.49362e-07
4.76013e-06
1.59007e-07
4.75865e-06
-9.66563e-09
4.7541e-06
-8.89562e-08
4.73854e-06
-2.05977e-07
4.7257e-06
-2.26514e-07
4.71669e-06
-1.45551e-07
4.70308e-06
-1.39635e-07
4.69769e-06
-8.36076e-08
4.69484e-06
4.85596e-09
4.68881e-06
2.60901e-08
4.68994e-06
5.71886e-08
4.69588e-06
1.07266e-07
1.26796e-07
4.69867e-06
4.96896e-06
1.19038e-09
4.97056e-06
-2.68111e-08
4.96665e-06
-7.39159e-08
4.95755e-06
-6.32189e-08
4.95984e-06
6.17181e-08
4.96312e-06
1.75476e-07
4.97791e-06
2.34574e-07
4.98698e-06
1.49935e-07
4.98484e-06
-7.52656e-09
4.98012e-06
-8.42365e-08
4.96513e-06
-1.9098e-07
4.95172e-06
-2.13104e-07
4.94268e-06
-1.36514e-07
4.92941e-06
-1.26362e-07
4.92345e-06
-7.76561e-08
4.92107e-06
7.24366e-09
4.91561e-06
3.15496e-08
4.9161e-06
5.66911e-08
4.92217e-06
1.01199e-07
1.23069e-07
4.9259e-06
5.20672e-06
7.90028e-10
5.20754e-06
-2.76344e-08
5.20447e-06
-7.08476e-08
5.19529e-06
-5.40338e-08
5.19735e-06
5.96521e-08
5.20132e-06
1.71508e-07
5.21469e-06
2.21206e-07
5.22442e-06
1.40203e-07
5.22208e-06
-5.18536e-09
5.21682e-06
-7.89741e-08
5.20241e-06
-1.76577e-07
5.18875e-06
-1.99435e-07
5.1795e-06
-1.27273e-07
5.16659e-06
-1.13446e-07
5.16029e-06
-7.13592e-08
5.15821e-06
9.32622e-09
5.1534e-06
3.63633e-08
5.15339e-06
5.66998e-08
5.15926e-06
9.53269e-08
1.18385e-07
5.16394e-06
5.45584e-06
1.34725e-10
5.45583e-06
-2.76187e-08
5.45353e-06
-6.85486e-08
5.44457e-06
-4.50791e-08
5.44612e-06
5.81079e-08
5.45096e-06
1.66669e-07
5.46293e-06
2.09237e-07
5.47291e-06
1.30223e-07
5.47082e-06
-3.09528e-09
5.46484e-06
-7.29924e-08
5.45087e-06
-1.6261e-07
5.43723e-06
-1.85799e-07
5.42784e-06
-1.17881e-07
5.41514e-06
-1.00748e-07
5.40864e-06
-6.48614e-08
5.40686e-06
1.11104e-08
5.40268e-06
4.05438e-08
5.40233e-06
5.70472e-08
5.40772e-06
8.99386e-08
1.12867e-07
5.41324e-06
5.71688e-06
-7.86324e-10
5.716e-06
-2.67444e-08
5.71433e-06
-6.68774e-08
5.70596e-06
-3.67092e-08
5.70673e-06
5.73462e-08
5.7125e-06
1.60893e-07
5.72325e-06
1.98491e-07
5.73298e-06
1.20486e-07
5.73151e-06
-1.61814e-09
5.72484e-06
-6.63249e-08
5.71103e-06
-1.48803e-07
5.69763e-06
-1.72395e-07
5.68826e-06
-1.08513e-07
5.67575e-06
-8.82399e-08
5.66896e-06
-5.80686e-08
5.66757e-06
1.25031e-08
5.66404e-06
4.40693e-08
5.66347e-06
5.76237e-08
5.66821e-06
8.51964e-08
1.06797e-07
5.67428e-06
5.99038e-06
-1.97212e-09
5.98867e-06
-2.50393e-08
5.98742e-06
-6.56251e-08
5.98001e-06
-2.93001e-08
5.9798e-06
5.75602e-08
5.98642e-06
1.54267e-07
5.99628e-06
1.88638e-07
6.00528e-06
1.11485e-07
6.00457e-06
-9.12915e-10
5.99752e-06
-5.927e-08
5.98351e-06
-1.34799e-07
5.97042e-06
-1.59305e-07
5.96134e-06
-9.94282e-08
5.94906e-06
-7.59638e-08
5.94188e-06
-5.08852e-08
5.94083e-06
1.35554e-08
5.93806e-06
4.68327e-08
5.93737e-06
5.83202e-08
5.94139e-06
8.11698e-08
1.00545e-07
5.94765e-06
6.27692e-06
-3.40645e-09
6.27447e-06
-2.25827e-08
6.27336e-06
-6.45193e-08
6.26727e-06
-2.32075e-08
6.26602e-06
5.88094e-08
6.27323e-06
1.47051e-07
6.28261e-06
1.79259e-07
6.2905e-06
1.03598e-07
6.29048e-06
-8.94891e-10
6.28346e-06
-5.22489e-08
6.26911e-06
-1.20449e-07
6.25613e-06
-1.46327e-07
6.24758e-06
-9.08737e-08
6.23578e-06
-6.41634e-08
6.22807e-06
-4.31727e-08
6.22724e-06
1.4383e-08
6.22526e-06
4.88076e-08
6.22463e-06
5.8954e-08
6.22802e-06
7.77785e-08
9.45571e-08
6.23401e-06
6.57712e-06
-5.05591e-09
6.57404e-06
-1.95049e-08
6.57277e-06
-6.32474e-08
6.56828e-06
-1.87193e-08
6.56611e-06
6.09849e-08
6.5735e-06
1.39661e-07
6.58284e-06
1.69914e-07
6.5894e-06
9.70361e-08
6.58976e-06
-1.25629e-09
6.58324e-06
-4.57229e-08
6.56862e-06
-1.05833e-07
6.55542e-06
-1.33121e-07
6.5475e-06
-8.29604e-08
6.53648e-06
-5.31437e-08
6.5283e-06
-3.49846e-08
6.52747e-06
1.52128e-08
6.52618e-06
5.00914e-08
6.52581e-06
5.93308e-08
6.52879e-06
7.47895e-08
8.92226e-08
6.53413e-06
6.89161e-06
-6.87152e-09
6.88807e-06
-1.59718e-08
6.88633e-06
-6.15044e-08
6.88362e-06
-1.60057e-08
6.88079e-06
6.38089e-08
6.88785e-06
1.32606e-07
6.89752e-06
1.60244e-07
6.90279e-06
9.17672e-08
6.90305e-06
-1.52049e-09
6.89738e-06
-4.00509e-08
6.88278e-06
-9.12302e-08
6.86904e-06
-1.19386e-07
6.8617e-06
-7.56189e-08
6.85175e-06
-4.31972e-08
6.84329e-06
-2.65175e-08
6.8422e-06
1.62968e-08
6.84153e-06
5.07597e-08
6.84141e-06
5.94519e-08
6.84428e-06
7.19209e-08
8.46222e-08
6.84888e-06
7.22105e-06
-8.78565e-09
7.21726e-06
-1.21861e-08
7.21478e-06
-5.90185e-08
7.21387e-06
-1.50942e-08
7.21083e-06
6.68478e-08
7.217e-06
1.26435e-07
7.22722e-06
1.50028e-07
7.23146e-06
8.7526e-08
7.23107e-06
-1.13697e-09
7.2264e-06
-3.53739e-08
7.21228e-06
-7.7119e-08
7.19794e-06
-1.05043e-07
7.19074e-06
-6.84194e-08
7.18217e-06
-3.46244e-08
7.17375e-06
-1.80939e-08
7.17221e-06
1.78361e-08
7.1721e-06
5.08699e-08
7.17205e-06
5.94968e-08
7.175e-06
6.89746e-08
8.05584e-08
7.17906e-06
7.56615e-06
-1.07139e-08
7.56235e-06
-8.38515e-09
7.55889e-06
-5.55539e-08
7.55967e-06
-1.58784e-08
7.55695e-06
6.95755e-08
7.56177e-06
1.2161e-07
7.57248e-06
1.39315e-07
7.5762e-06
8.38089e-08
7.57471e-06
3.55971e-10
7.57086e-06
-3.15263e-08
7.55784e-06
-6.40998e-08
7.54297e-06
-9.01782e-08
7.53543e-06
-6.08703e-08
7.52827e-06
-2.74722e-08
7.52036e-06
-1.01788e-08
7.51826e-06
1.99382e-08
7.51857e-06
5.05586e-08
7.51855e-06
5.95167e-08
7.5215e-06
6.60272e-08
7.67272e-08
7.52533e-06
7.92766e-06
-1.25602e-08
7.92409e-06
-4.81789e-09
7.91948e-06
-5.09413e-08
7.92172e-06
-1.81231e-08
7.91985e-06
7.14493e-08
7.92306e-06
1.18404e-07
7.93392e-06
1.2845e-07
7.93774e-06
7.99874e-08
7.93492e-06
3.17399e-09
7.93142e-06
-2.80255e-08
7.92002e-06
-5.2696e-08
7.90499e-06
-7.51484e-08
7.89673e-06
-5.26105e-08
7.89067e-06
-2.1407e-08
7.88374e-06
-3.24971e-09
7.88118e-06
2.24914e-08
7.88167e-06
5.00726e-08
7.88177e-06
5.94142e-08
7.88446e-06
6.33374e-08
7.28312e-08
7.88836e-06
8.30634e-06
-1.42161e-08
8.30326e-06
-1.74128e-09
8.29742e-06
-4.51054e-08
8.30072e-06
-2.14228e-08
8.30026e-06
7.19109e-08
8.3018e-06
1.16867e-07
8.31221e-06
1.18043e-07
8.31677e-06
7.54204e-08
8.31274e-06
7.20497e-09
8.30892e-06
-2.42065e-08
8.29931e-06
-4.3082e-08
8.28483e-06
-6.06713e-08
8.27571e-06
-4.34845e-08
8.27013e-06
-1.583e-08
8.26443e-06
2.45109e-09
8.26179e-06
2.51266e-08
8.26221e-06
4.96554e-08
8.26251e-06
5.91146e-08
8.26476e-06
6.10843e-08
6.87793e-08
8.26881e-06
8.70301e-06
-1.55665e-08
8.70069e-06
5.85416e-10
8.69362e-06
-3.80425e-08
8.69748e-06
-2.52765e-08
8.69887e-06
7.05208e-08
8.69898e-06
1.16754e-07
8.70822e-06
1.08801e-07
8.71384e-06
6.98008e-08
8.70921e-06
1.18326e-08
8.70434e-06
-1.93284e-08
8.69632e-06
-3.50694e-08
8.68319e-06
-4.75367e-08
8.67337e-06
-3.36662e-08
8.66768e-06
-1.01366e-08
8.66308e-06
7.04828e-09
8.66077e-06
2.74349e-08
8.66114e-06
4.92901e-08
8.66153e-06
5.87208e-08
8.66329e-06
5.93234e-08
6.46722e-08
8.6674e-06
9.11855e-06
-1.64958e-08
9.1172e-06
1.93243e-09
9.109e-06
-2.98445e-08
9.11285e-06
-2.91244e-08
9.11637e-06
6.70002e-08
9.11554e-06
1.17586e-07
9.12296e-06
1.01379e-07
9.1296e-06
6.31661e-08
9.12518e-06
1.625e-08
9.1189e-06
-1.30483e-08
9.11185e-06
-2.80177e-08
9.10058e-06
-3.62643e-08
9.09065e-06
-2.37427e-08
9.08452e-06
-3.99996e-09
9.08051e-06
1.10516e-08
9.07877e-06
2.91806e-08
9.07932e-06
4.87381e-08
9.07973e-06
5.83099e-08
9.08097e-06
5.80806e-08
6.07806e-08
9.08486e-06
9.55386e-06
-1.68986e-08
9.55368e-06
2.11758e-09
9.54453e-06
-2.07005e-08
9.54777e-06
-3.23577e-08
9.55354e-06
6.12233e-08
9.55243e-06
1.18697e-07
9.5575e-06
9.63123e-08
9.56476e-06
5.5903e-08
9.56147e-06
1.95434e-08
9.55376e-06
-5.3359e-09
9.54685e-06
-2.11144e-08
9.53761e-06
-2.70168e-08
9.52839e-06
-1.45286e-08
9.52176e-06
2.62964e-09
9.51777e-06
1.5048e-08
9.51655e-06
3.04003e-08
9.51748e-06
4.7803e-08
9.51816e-06
5.76327e-08
9.51873e-06
5.75066e-08
5.73742e-08
9.52214e-06
1.00099e-05
-1.6687e-08
1.0011e-05
1.04539e-09
1.00012e-05
-1.09249e-08
1.00032e-05
-3.43818e-08
1.00112e-05
5.32833e-08
1.00106e-05
1.19303e-07
1.0013e-05
9.38906e-08
1.00202e-05
4.86833e-08
1.00187e-05
2.10756e-08
1.00102e-05
3.18443e-09
1.00025e-05
-1.34822e-08
9.99506e-06
-1.95459e-08
9.98725e-06
-6.71828e-09
9.98044e-06
9.4418e-09
9.9761e-06
1.93895e-08
9.97504e-06
3.14639e-08
9.97631e-06
4.65242e-08
9.9777e-06
5.62479e-08
9.97774e-06
5.74631e-08
5.48501e-08
9.98027e-06
1.04878e-05
-1.58021e-08
1.04901e-05
-1.29934e-09
1.04801e-05
-8.96077e-10
1.04804e-05
-3.46865e-08
1.04902e-05
4.3464e-08
1.04908e-05
1.18657e-07
1.04907e-05
9.40497e-08
1.0497e-05
4.24055e-08
1.04975e-05
2.05068e-08
1.04892e-05
1.15453e-08
1.04803e-05
-4.6248e-09
1.04738e-05
-1.30759e-08
1.04679e-05
-7.36861e-10
1.04615e-05
1.57721e-08
1.04567e-05
2.4194e-08
1.04553e-05
3.2839e-08
1.04568e-05
4.50968e-08
1.0459e-05
5.40285e-08
1.04593e-05
5.71732e-08
5.36881e-08
1.04604e-05
1.09884e-05
-1.42235e-08
1.09919e-05
-4.80663e-09
1.09821e-05
8.92549e-09
1.09804e-05
-3.29415e-08
1.09915e-05
3.2298e-08
1.09941e-05
1.16152e-07
1.09917e-05
9.63546e-08
1.09962e-05
3.79254e-08
1.09988e-05
1.79718e-08
1.09916e-05
1.87147e-08
1.09816e-05
5.37632e-09
1.09751e-05
-6.6191e-09
1.09709e-05
3.45579e-09
1.09659e-05
2.08332e-08
1.09607e-05
2.93522e-08
1.09588e-05
3.47736e-08
1.096e-05
4.38932e-08
1.09627e-05
5.13235e-08
1.09642e-05
5.5709e-08
5.36328e-08
1.09642e-05
1.15131e-05
-1.19845e-08
1.15176e-05
-9.25791e-09
1.15085e-05
1.80351e-08
1.15045e-05
-2.89378e-08
1.15163e-05
2.04468e-08
1.15211e-05
1.11361e-07
1.15174e-05
1.00088e-07
1.15194e-05
3.59273e-08
1.15233e-05
1.40887e-08
1.15182e-05
2.37554e-08
1.15076e-05
1.59565e-08
1.15004e-05
6.57609e-10
1.14974e-05
6.3648e-09
1.14942e-05
2.40951e-08
1.14892e-05
3.42976e-08
1.14866e-05
3.73929e-08
1.14872e-05
4.32659e-08
1.14899e-05
4.86501e-08
1.14927e-05
5.29217e-08
5.3514e-08
1.14928e-05
1.2063e-05
-9.17371e-09
1.20681e-05
-1.43121e-08
1.20602e-05
2.59113e-08
1.2054e-05
-2.27108e-08
1.20656e-05
8.77886e-09
1.2073e-05
1.04019e-07
1.20687e-05
1.04408e-07
1.20679e-05
3.66923e-08
1.20722e-05
9.79638e-09
1.20698e-05
2.61735e-08
1.20595e-05
2.61898e-08
1.20511e-05
9.0582e-09
1.20485e-05
8.9923e-09
1.20471e-05
2.54559e-08
1.20433e-05
3.81016e-08
1.204e-05
4.07446e-08
1.20399e-05
4.33051e-08
1.20421e-05
4.64479e-08
1.20456e-05
4.95052e-08
5.21411e-08
1.20469e-05
1.26394e-05
-5.93166e-09
1.26446e-05
-1.95377e-08
1.26384e-05
3.20563e-08
1.26302e-05
-1.44706e-08
1.26408e-05
-1.81599e-09
1.26506e-05
9.41991e-08
1.26468e-05
1.08241e-07
1.26432e-05
4.0262e-08
1.26468e-05
6.16438e-09
1.26471e-05
2.58796e-08
1.26383e-05
3.5054e-08
1.26289e-05
1.84512e-08
1.26256e-05
1.22452e-08
1.26257e-05
2.53658e-08
1.26238e-05
4.00403e-08
1.26202e-05
4.43547e-08
1.26193e-05
4.41562e-08
1.26208e-05
4.49257e-08
1.26241e-05
4.6195e-08
4.9427e-08
1.26269e-05
1.32434e-05
-2.44323e-09
1.32484e-05
-2.44611e-08
1.32444e-05
3.60504e-08
1.32345e-05
-4.61246e-09
1.32431e-05
-1.03816e-08
1.32552e-05
8.20871e-08
1.32528e-05
1.10643e-07
1.32468e-05
4.62888e-08
1.32487e-05
4.1851e-09
1.32514e-05
2.32307e-08
1.32448e-05
4.16455e-08
1.32349e-05
2.8382e-08
1.32305e-05
1.6627e-08
1.32312e-05
2.46627e-08
1.32312e-05
4.00241e-08
1.32284e-05
4.71583e-08
1.32266e-05
4.59869e-08
1.32274e-05
4.40989e-08
1.32302e-05
4.34409e-08
4.61345e-08
1.32334e-05
1.38766e-05
1.07314e-09
1.38808e-05
-2.86045e-08
1.38792e-05
3.76906e-08
1.38683e-05
6.21752e-09
1.38741e-05
-1.61603e-08
1.38879e-05
6.82807e-08
1.38878e-05
1.10753e-07
1.388e-05
5.41184e-08
1.38796e-05
4.56852e-09
1.38838e-05
1.90066e-08
1.38801e-05
4.53751e-08
1.38704e-05
3.80699e-08
1.38648e-05
2.22282e-08
1.38652e-05
2.42857e-08
1.38667e-05
3.84858e-08
1.38656e-05
4.83109e-08
1.38632e-05
4.8357e-08
1.38631e-05
4.41733e-08
1.38652e-05
4.13603e-08
4.29209e-08
1.38684e-05
1.45404e-05
4.38515e-09
1.45433e-05
-3.1523e-08
1.4544e-05
3.69331e-08
1.4533e-05
1.72869e-08
1.45354e-05
-1.86447e-08
1.45502e-05
5.35679e-08
1.45529e-05
1.08024e-07
1.45442e-05
6.28266e-08
1.45411e-05
7.63774e-09
1.45458e-05
1.42977e-08
1.45451e-05
4.6074e-08
1.45367e-05
4.65205e-08
1.453e-05
2.88989e-08
1.45294e-05
2.49207e-08
1.45318e-05
3.60693e-08
1.45324e-05
4.76683e-08
1.45306e-05
5.01959e-08
1.45294e-05
4.53902e-08
1.45308e-05
3.99741e-08
4.01611e-08
1.45335e-05
1.5236e-05
7.26911e-09
1.52374e-05
-3.28808e-08
1.52403e-05
3.40023e-08
1.52298e-05
2.77599e-08
1.52289e-05
-1.76949e-08
1.52435e-05
3.89177e-08
1.52492e-05
1.02356e-07
1.52407e-05
7.12912e-08
1.52351e-05
1.32926e-08
1.52391e-05
1.02878e-08
1.52412e-05
4.39829e-08
1.52349e-05
5.27849e-08
1.52275e-05
3.6264e-08
1.52256e-05
2.68411e-08
1.52281e-05
3.3565e-08
1.52301e-05
4.56394e-08
1.52298e-05
5.05805e-08
1.52278e-05
4.73223e-08
1.52282e-05
3.95729e-08
3.78267e-08
1.52306e-05
1.5965e-05
9.5512e-09
1.59647e-05
-3.25214e-08
1.59693e-05
2.93692e-08
1.59603e-05
3.68256e-08
1.59562e-05
-1.36048e-08
1.59696e-05
2.55115e-08
1.59781e-05
9.38686e-08
1.59709e-05
7.84246e-08
1.59632e-05
2.10556e-08
1.59654e-05
8.05933e-09
1.59697e-05
3.97133e-08
1.59662e-05
5.62744e-08
1.59588e-05
4.35877e-08
1.59557e-05
3.00161e-08
1.59575e-05
3.17002e-08
1.59604e-05
4.2763e-08
1.59616e-05
4.9361e-08
1.59601e-05
4.8824e-08
1.59592e-05
4.04653e-08
3.59502e-08
1.59611e-05
1.6729e-05
1.11075e-08
1.6727e-05
-3.04383e-08
1.67327e-05
2.36449e-08
1.67257e-05
4.3797e-08
1.67191e-05
-6.99096e-09
1.67302e-05
1.43838e-08
1.67409e-05
8.31798e-08
1.67361e-05
8.32116e-08
1.6727e-05
3.01648e-08
1.67269e-05
8.21277e-09
1.67323e-05
3.42822e-08
1.67317e-05
5.6869e-08
1.67254e-05
4.99006e-08
1.67211e-05
3.42613e-08
1.67219e-05
3.09072e-08
1.67251e-05
3.95795e-08
1.67275e-05
4.70212e-08
1.67274e-05
4.88884e-08
1.67256e-05
4.22377e-08
3.48872e-08
1.67267e-05
1.75296e-05
1.1891e-08
1.75259e-05
-2.68096e-08
1.75321e-05
1.75028e-08
1.75277e-05
4.82347e-08
1.75194e-05
1.30337e-09
1.75274e-05
6.34547e-09
1.75395e-05
7.10915e-08
1.75377e-05
8.49772e-08
1.75282e-05
3.96872e-08
1.75255e-05
1.08617e-08
1.75309e-05
2.88802e-08
1.7533e-05
5.48654e-08
1.75286e-05
5.43019e-08
1.75237e-05
3.914e-08
1.75233e-05
3.13204e-08
1.75262e-05
3.66444e-08
1.75291e-05
4.41169e-08
1.75306e-05
4.73586e-08
1.75292e-05
4.37148e-08
3.50156e-08
1.7529e-05
1.83683e-05
1.19301e-08
1.83635e-05
-2.20012e-08
1.83693e-05
1.16684e-08
1.83675e-05
5.00182e-08
1.83586e-05
1.02103e-08
1.83632e-05
1.83734e-09
1.83756e-05
5.86252e-08
1.83771e-05
8.35083e-08
1.83683e-05
4.85222e-08
1.83634e-05
1.57062e-08
1.83677e-05
2.46252e-08
1.83717e-05
5.08556e-08
1.83696e-05
5.63348e-08
1.83649e-05
4.38803e-08
1.83633e-05
3.28887e-08
1.83656e-05
3.43916e-08
1.83687e-05
4.10143e-08
1.83712e-05
4.48026e-08
1.83711e-05
4.38634e-08
3.60404e-08