/*--------------------------------*- C++ -*----------------------------------*\
| =========                 |                                                 |
| \\      /  F ield         | OpenFOAM: The Open Source CFD Toolbox           |
|  \\    /   O peration     | Version:  2106                                  |
|   \\  /    A nd           | Website:  www.openfoam.com                      |
|    \\/     M anipulation  |                                                 |
\*---------------------------------------------------------------------------*/
FoamFile
{
    version     2.0;
    format      ascii;
    arch        "LSB;label=32;scalar=64";
    class       volVectorField;
    location    "0.21";
    object      U;
}
// * * * * * * * * * * * * * * * * * * * * * * * * * * * * * * * * * * * * * //

dimensions      [0 1 -1 0 0 0 0];

internalField   nonuniform List<vector> 
9600
(
(0.872029 -6.70615e-05 0)
(1.12994 0.000404652 0)
(0.871148 -0.00239039 0)
(1.13484 -0.00216388 0)
(0.879598 -0.000125964 0)
(1.11986 0.00468825 0)
(0.875352 0.0101593 0)
(1.12662 0.00556025 0)
(0.850474 -0.00161123 0)
(1.09623 -0.00340016 0)
(0.903409 -0.0127601 0)
(1.09398 -0.0143469 0)
(0.866399 -0.00824113 0)
(1.10496 -0.0139634 0)
(0.844043 -0.000327711 0)
(1.13376 -0.00334422 0)
(0.833005 -0.00102212 0)
(1.13317 0.00352561 0)
(0.843127 0.00508763 0)
(1.11825 0.00806102 0)
(0.881579 -0.000170415 0)
(1.11882 0.000573069 0)
(0.883659 -0.00258194 0)
(1.12298 -0.00205967 0)
(0.892614 -0.000171584 0)
(1.10726 0.00488759 0)
(0.893729 0.00986879 0)
(1.10304 0.00610385 0)
(0.886704 -0.00133966 0)
(1.06603 -0.00395579 0)
(0.936718 -0.0129782 0)
(1.06348 -0.0134801 0)
(0.905593 -0.00863319 0)
(1.0662 -0.013207 0)
(0.889729 -0.00144165 0)
(1.07938 -0.00298145 0)
(0.903048 -0.00112483 0)
(1.05343 0.0025492 0)
(0.946305 0.00686112 0)
(0.998125 0.00625871 0)
(0.899578 -0.000216446 0)
(1.09823 0.00066764 0)
(0.905863 -0.00275633 0)
(1.10046 -0.00199182 0)
(0.917233 -0.000169412 0)
(1.08252 0.00501514 0)
(0.924798 0.00976774 0)
(1.06973 0.00633204 0)
(0.930845 -0.00108571 0)
(1.03289 -0.00446268 0)
(0.96857 -0.0129631 0)
(1.02902 -0.0130322 0)
(0.947852 -0.00872081 0)
(1.02455 -0.012907 0)
(0.94057 -0.00174328 0)
(1.02876 -0.00318856 0)
(0.961945 -0.000569749 0)
(1.00427 0.00180353 0)
(0.986869 0.00768019 0)
(0.981088 0.00674468 0)
(0.922751 -0.000234119 0)
(1.07234 0.000696627 0)
(0.932393 -0.00286161 0)
(1.07216 -0.00199563 0)
(0.945722 -9.24846e-05 0)
(1.05355 0.00501821 0)
(0.955646 0.00982567 0)
(1.04013 0.00631565 0)
(0.96565 -0.000736775 0)
(1.01054 -0.00482096 0)
(0.987301 -0.0129058 0)
(1.00586 -0.0128082 0)
(0.973408 -0.008568 0)
(1.00001 -0.0127964 0)
(0.969285 -0.00181959 0)
(1.00439 -0.00367563 0)
(0.986685 -0.000106961 0)
(0.993096 0.00153883 0)
(0.993456 0.00783266 0)
(0.988703 0.00772785 0)
(0.946669 -0.000221893 0)
(1.04671 0.000676168 0)
(0.957133 -0.00291015 0)
(1.04483 -0.00205278 0)
(0.969812 2.64335e-05 0)
(1.02869 0.00496191 0)
(0.977976 0.00990232 0)
(1.02063 0.00624297 0)
(0.986688 -0.000426359 0)
(1.00094 -0.00502811 0)
(0.994615 -0.012806 0)
(0.995086 -0.0126562 0)
(0.984155 -0.00839641 0)
(0.991063 -0.0127161 0)
(0.980188 -0.00195013 0)
(0.996138 -0.00408936 0)
(0.993307 0.000169259 0)
(0.99299 0.001437 0)
(0.994159 0.00784511 0)
(0.992226 0.00854753 0)
(0.967356 -0.000188048 0)
(1.026 0.000628653 0)
(0.976034 -0.00291995 0)
(1.02353 -0.00212613 0)
(0.985505 0.000143096 0)
(1.01187 0.00490359 0)
(0.990552 0.00993478 0)
(1.01081 0.00616921 0)
(0.997389 -0.000216531 0)
(0.999375 -0.00508712 0)
(0.996905 -0.0126441 0)
(0.99124 -0.0125601 0)
(0.987927 -0.00825979 0)
(0.989347 -0.0126411 0)
(0.983698 -0.00210602 0)
(0.993454 -0.00435553 0)
(0.99411 0.000192583 0)
(0.993333 0.00144558 0)
(0.994393 0.00782224 0)
(0.993252 0.00915584 0)
(0.982593 -0.000147767 0)
(1.01221 0.000577405 0)
(0.988176 -0.00290497 0)
(1.00978 -0.00218447 0)
(0.99336 0.000234699 0)
(1.00247 0.00486002 0)
(0.996327 0.0099036 0)
(1.00715 0.00609335 0)
(1.00265 -8.21329e-05 0)
(1.00106 -0.00505681 0)
(0.99818 -0.0124228 0)
(0.99023 -0.0124876 0)
(0.989314 -0.00814777 0)
(0.989685 -0.0125699 0)
(0.985153 -0.00222758 0)
(0.992428 -0.00456868 0)
(0.993573 9.76206e-05 0)
(0.993108 0.00158929 0)
(0.994433 0.00766806 0)
(0.993964 0.00964437 0)
(0.992195 -0.000113444 0)
(1.00466 0.00053587 0)
(0.994867 -0.00287395 0)
(1.00227 -0.00221485 0)
(0.996145 0.000299703 0)
(0.997912 0.00481775 0)
(0.998796 0.00981668 0)
(1.00645 0.00600366 0)
(1.00559 3.82408e-06 0)
(1.00344 -0.00499067 0)
(0.99957 -0.0121433 0)
(0.990364 -0.0124029 0)
(0.990026 -0.00805025 0)
(0.990167 -0.0124951 0)
(0.986116 -0.00234013 0)
(0.991955 -0.00473297 0)
(0.992949 -1.80331e-05 0)
(0.992723 0.00177467 0)
(0.994419 0.00737621 0)
(0.994688 0.0100776 0)
(0.997354 -9.03366e-05 0)
(1.00132 0.000505734 0)
(0.998096 -0.00283109 0)
(0.998715 -0.00221782 0)
(0.996553 0.000346958 0)
(0.99586 0.00476059 0)
(1.0001 0.00968782 0)
(1.00685 0.00589693 0)
(1.0075 5.89958e-05 0)
(1.00556 -0.00491021 0)
(1.00102 -0.0118136 0)
(0.991021 -0.0122927 0)
(0.99065 -0.0079526 0)
(0.990383 -0.0124118 0)
(0.986805 -0.00246901 0)
(0.991594 -0.00481667 0)
(0.992404 -0.000170245 0)
(0.992331 0.00196189 0)
(0.994386 0.00701933 0)
(0.995274 0.0104553 0)
(0.999671 -7.74197e-05 0)
(1.00022 0.00048245 0)
(0.999485 -0.00277752 0)
(0.997245 -0.00219996 0)
(0.996226 0.000386243 0)
(0.994972 0.00468054 0)
(1.00098 0.00952789 0)
(1.00748 0.00577473 0)
(1.00873 9.69109e-05 0)
(1.00707 -0.00482342 0)
(1.00229 -0.011451 0)
(0.991915 -0.0121537 0)
(0.991355 -0.00784297 0)
(0.990433 -0.0123034 0)
(0.987171 -0.00262256 0)
(0.991087 -0.0048211 0)
(0.991734 -0.000381179 0)
(0.991782 0.00216854 0)
(0.994144 0.00663583 0)
(0.995472 0.0107246 0)
(1.00048 -7.09068e-05 0)
(1.00005 0.000460812 0)
(0.999999 -0.00271441 0)
(0.996765 -0.00216885 0)
(0.995859 0.000423589 0)
(0.994623 0.00457833 0)
(1.00148 0.00934566 0)
(1.00795 0.00564086 0)
(1.00934 0.000127088 0)
(1.0079 -0.0047365 0)
(1.00324 -0.0110719 0)
(0.992889 -0.0119884 0)
(0.992106 -0.00771737 0)
(0.990499 -0.0121517 0)
(0.987215 -0.00278955 0)
(0.990338 -0.00475447 0)
(0.990758 -0.000635548 0)
(0.990847 0.0023973 0)
(0.993418 0.00624345 0)
(0.99502 0.0108538 0)
(1.00062 -6.74165e-05 0)
(1.00017 0.000437768 0)
(1.00011 -0.00264393 0)
(0.996745 -0.00213045 0)
(0.995632 0.000462048 0)
(0.99454 0.00446096 0)
(1.00156 0.00914919 0)
(1.00814 0.00549857 0)
(1.00947 0.000154873 0)
(1.00814 -0.00465307 0)
(1.00383 -0.0106913 0)
(0.993832 -0.011801 0)
(0.992794 -0.00757976 0)
(0.990695 -0.0119423 0)
(0.987028 -0.00296437 0)
(0.989413 -0.00461329 0)
(0.989505 -0.000907364 0)
(0.989471 0.00263083 0)
(0.992095 0.00587737 0)
(0.993807 0.0108458 0)
(1.00053 -6.49615e-05 0)
(1.00035 0.000412372 0)
(1.00005 -0.00256824 0)
(0.996927 -0.00208874 0)
(0.995538 0.000503113 0)
(0.994592 0.00433714 0)
(1.00129 0.00894515 0)
(1.00809 0.00534828 0)
(1.00929 0.000183304 0)
(1.00799 -0.00457368 0)
(1.0041 -0.0103233 0)
(0.994655 -0.0115929 0)
(0.993331 -0.00743721 0)
(0.99103 -0.0116693 0)
(0.986756 -0.00314162 0)
(0.988481 -0.00439526 0)
(0.988201 -0.0011695 0)
(0.987852 0.00285429 0)
(0.990361 0.00558118 0)
(0.992024 0.010712 0)
(1.0004 -6.26702e-05 0)
(1.0005 0.000384766 0)
(0.999939 -0.00248867 0)
(0.997166 -0.00204609 0)
(0.995536 0.000547354 0)
(0.994711 0.00421318 0)
(1.00088 0.00873762 0)
(1.00789 0.00518997 0)
(1.00897 0.000211546 0)
(1.00765 -0.00449434 0)
(1.00414 -0.00997742 0)
(0.9953 -0.0113629 0)
(0.993691 -0.00729895 0)
(0.991436 -0.0113379 0)
(0.986544 -0.00330507 0)
(0.987705 -0.00411786 0)
(0.98712 -0.00139073 0)
(0.986324 0.00306202 0)
(0.988605 0.00538945 0)
(0.990107 0.0104719 0)
(1.0003 -6.01942e-05 0)
(1.00059 0.000355237 0)
(0.999828 -0.00240579 0)
(0.997384 -0.00200366 0)
(0.995586 0.00059426 0)
(0.994857 0.00409203 0)
(1.00049 0.00852784 0)
(1.00764 0.00502547 0)
(1.00863 0.000237068 0)
(1.00727 -0.00440996 0)
(1.00405 -0.00965556 0)
(0.995756 -0.0111091 0)
(0.993902 -0.00717314 0)
(0.991832 -0.0109578 0)
(0.986476 -0.00345191 0)
(0.987174 -0.00379756 0)
(0.986432 -0.00157527 0)
(0.985178 0.00323738 0)
(0.987194 0.0053089 0)
(0.988511 0.0101562 0)
(1.00024 -5.73505e-05 0)
(1.00064 0.000323861 0)
(0.999745 -0.00231984 0)
(0.997553 -0.00196163 0)
(0.995666 0.000642733 0)
(0.99501 0.00397368 0)
(1.00021 0.00831635 0)
(1.00739 0.00485646 0)
(1.00832 0.000260707 0)
(1.00691 -0.00431574 0)
(1.0039 -0.00935568 0)
(0.996052 -0.0108305 0)
(0.994017 -0.00705988 0)
(0.992166 -0.0105398 0)
(0.986564 -0.00358701 0)
(0.986888 -0.00344581 0)
(0.986148 -0.0016955 0)
(0.984534 0.00337698 0)
(0.986309 0.00532451 0)
(0.987493 0.00979729 0)
(1.00021 -5.40678e-05 0)
(1.00065 0.00029073 0)
(0.999692 -0.00223084 0)
(0.997676 -0.00191979 0)
(0.995762 0.000692047 0)
(0.995157 0.00385702 0)
(1.00005 0.00810162 0)
(1.00715 0.00468729 0)
(1.00804 0.000277205 0)
(1.0066 -0.0042061 0)
(1.00373 -0.00907517 0)
(0.996239 -0.0105251 0)
(0.994082 -0.00695959 0)
(0.992429 -0.0100948 0)
(0.986771 -0.00370604 0)
(0.986795 -0.00308905 0)
(0.986172 -0.00174149 0)
(0.984343 0.00348132 0)
(0.985925 0.00540769 0)
(0.987065 0.00942179 0)
(1.00021 -5.02915e-05 0)
(1.00065 0.000255766 0)
(0.999659 -0.00213874 0)
(0.997771 -0.00187791 0)
(0.995867 0.00074117 0)
(0.995298 0.00374156 0)
(0.99997 0.00788238 0)
(1.00693 0.004521 0)
(1.00778 0.000281067 0)
(1.00631 -0.00407661 0)
(1.00356 -0.00881326 0)
(0.996363 -0.0101942 0)
(0.994128 -0.00686736 0)
(0.992641 -0.00963948 0)
(0.987051 -0.00379529 0)
(0.986827 -0.0027515 0)
(0.986384 -0.00173036 0)
(0.984475 0.00354284 0)
(0.985904 0.00552361 0)
(0.987079 0.00904853 0)
(1.00021 -4.59516e-05 0)
(1.00062 0.000218764 0)
(0.999637 -0.00204359 0)
(0.99785 -0.00183571 0)
(0.995979 0.000789373 0)
(0.995434 0.00362766 0)
(0.999933 0.00765672 0)
(1.00671 0.00436203 0)
(1.00753 0.000272042 0)
(1.00603 -0.00392717 0)
(1.00338 -0.00856636 0)
(0.996458 -0.00984368 0)
(0.99417 -0.00677539 0)
(0.992823 -0.00918294 0)
(0.98737 -0.00385627 0)
(0.986931 -0.00244047 0)
(0.986694 -0.00165308 0)
(0.984799 0.00356708 0)
(0.986095 0.005648 0)
(0.987358 0.00869121 0)
(1.00021 -4.11371e-05 0)
(1.0006 0.00018007 0)
(0.99962 -0.00194606 0)
(0.997924 -0.00179222 0)
(0.996094 0.000835182 0)
(0.995569 0.00351711 0)
(0.999916 0.00742215 0)
(1.0065 0.00421229 0)
(1.00728 0.000246113 0)
(1.00576 -0.0037595 0)
(1.00321 -0.00832961 0)
(0.99654 -0.00947968 0)
(0.994215 -0.00667321 0)
(0.992992 -0.00874057 0)
(0.987709 -0.00388438 0)
(0.987076 -0.00214883 0)
(0.987045 -0.00153377 0)
(0.985223 0.00355901 0)
(0.986387 0.0057669 0)
(0.987761 0.00835746 0)
(1.00022 -3.58418e-05 0)
(1.00057 0.000139458 0)
(0.999606 -0.00184622 0)
(0.997995 -0.00174715 0)
(0.996212 0.000877863 0)
(0.995704 0.00341044 0)
(0.999906 0.00717769 0)
(1.00628 0.00407123 0)
(1.00703 0.000206935 0)
(1.00548 -0.00357668 0)
(1.00304 -0.00809947 0)
(0.996619 -0.00910691 0)
(0.994263 -0.00654994 0)
(0.993158 -0.00832431 0)
(0.98806 -0.00387593 0)
(0.987244 -0.00187645 0)
(0.987412 -0.00138868 0)
(0.985702 0.00352472 0)
(0.986722 0.00587238 0)
(0.988206 0.00804981 0)
(1.00022 -3.00956e-05 0)
(1.00054 9.68544e-05 0)
(0.999592 -0.00174445 0)
(0.998067 -0.00169987 0)
(0.996332 0.000916635 0)
(0.99584 0.00330867 0)
(0.9999 0.0069218 0)
(1.00607 0.00394234 0)
(1.00678 0.000154896 0)
(1.00521 -0.00338101 0)
(1.00286 -0.0078703 0)
(0.996698 -0.00873713 0)
(0.994315 -0.00639676 0)
(0.993324 -0.00792816 0)
(0.988422 -0.00383636 0)
(0.987429 -0.00161925 0)
(0.987783 -0.00122653 0)
(0.986212 0.00346488 0)
(0.987073 0.00595906 0)
(0.988654 0.00776925 0)
(1.00023 -2.39704e-05 0)
(1.00052 5.31445e-05 0)
(0.999579 -0.00164259 0)
(0.99814 -0.00164848 0)
(0.996454 0.000949279 0)
(0.995976 0.00321577 0)
(0.999894 0.00665186 0)
(1.00585 0.00382759 0)
(1.00654 8.91534e-05 0)
(1.00493 -0.00317592 0)
(1.00268 -0.00763507 0)
(0.996779 -0.00838112 0)
(0.994371 -0.0062079 0)
(0.99349 -0.00754794 0)
(0.988796 -0.0037696 0)
(0.98763 -0.00137315 0)
(0.988154 -0.00103947 0)
(0.986745 0.00338093 0)
(0.987432 0.006026 0)
(0.989086 0.0075193 0)
(1.00024 -1.77889e-05 0)
(1.00049 8.56866e-06 0)
(0.999567 -0.00154131 0)
(0.998215 -0.00159296 0)
(0.996577 0.000975535 0)
(0.996112 0.00313279 0)
(0.99989 0.00636925 0)
(1.00564 0.00372431 0)
(1.00629 1.72086e-05 0)
(1.00465 -0.00296799 0)
(1.0025 -0.00738292 0)
(0.996864 -0.00804518 0)
(0.994431 -0.00598806 0)
(0.993657 -0.00717979 0)
(0.98918 -0.00368632 0)
(0.987846 -0.00113165 0)
(0.988519 -0.000838165 0)
(0.987297 0.00327212 0)
(0.9878 0.00606867 0)
(0.989493 0.00730361 0)
(1.00024 -1.14138e-05 0)
(1.00047 -3.68804e-05 0)
(0.999556 -0.00144137 0)
(0.998292 -0.00153232 0)
(0.996701 0.000994111 0)
(0.996248 0.00305852 0)
(0.999886 0.00607571 0)
(1.00542 0.00362673 0)
(1.00605 -5.46207e-05 0)
(1.00437 -0.00276893 0)
(1.00231 -0.00710255 0)
(0.996953 -0.00773155 0)
(0.994497 -0.00574355 0)
(0.993823 -0.00681266 0)
(0.989576 -0.00359899 0)
(0.988079 -0.000897082 0)
(0.988877 -0.000623164 0)
(0.987864 0.00314203 0)
(0.988181 0.00607592 0)
(0.989872 0.00712236 0)
(1.00025 -5.08968e-06 0)
(1.00045 -8.18502e-05 0)
(0.999547 -0.00134439 0)
(0.998372 -0.00146333 0)
(0.996828 0.00100243 0)
(0.996383 0.00299487 0)
(0.999883 0.00577455 0)
(1.0052 0.00352949 0)
(1.00581 -0.000123643 0)
(1.00409 -0.00259113 0)
(1.00211 -0.00679038 0)
(0.997046 -0.00743577 0)
(0.994571 -0.0054784 0)
(0.993987 -0.00643872 0)
(0.989982 -0.00350734 0)
(0.988332 -0.000678803 0)
(0.989224 -0.000383345 0)
(0.988442 0.00300251 0)
(0.988578 0.0060413 0)
(0.990222 0.00697686 0)
(1.00026 4.06209e-07 0)
(1.00043 -0.000124948 0)
(0.999538 -0.00125014 0)
(0.998453 -0.00138759 0)
(0.996957 0.00100136 0)
(0.996516 0.00294062 0)
(0.99988 0.00546829 0)
(1.00498 0.0034399 0)
(1.00558 -0.000179962 0)
(1.00382 -0.00243508 0)
(1.00192 -0.00645485 0)
(0.997142 -0.00715004 0)
(0.994655 -0.00520384 0)
(0.994147 -0.00605362 0)
(0.990399 -0.00340281 0)
(0.988607 -0.000473809 0)
(0.989559 -0.000129138 0)
(0.989024 0.00286362 0)
(0.988996 0.00596357 0)
(0.990544 0.0068678 0)
(1.00026 5.75956e-06 0)
(1.00041 -0.000167267 0)
(0.999531 -0.00116178 0)
(0.998536 -0.00130271 0)
(0.99709 0.000989632 0)
(0.996647 0.00289512 0)
(0.999878 0.00515898 0)
(1.00477 0.00334719 0)
(1.00534 -0.000217822 0)
(1.00355 -0.00230019 0)
(1.00172 -0.0061014 0)
(0.997241 -0.00686477 0)
(0.994751 -0.00493627 0)
(0.994305 -0.00565301 0)
(0.990823 -0.00328565 0)
(0.988906 -0.000287584 0)
(0.989883 0.000129651 0)
(0.989604 0.00272983 0)
(0.989439 0.00583602 0)
(0.990839 0.00678826 0)
(1.00027 1.0098e-05 0)
(1.00039 -0.000206277 0)
(0.999526 -0.00108289 0)
(0.998619 -0.00120713 0)
(0.997225 0.000970008 0)
(0.996778 0.00285441 0)
(0.999877 0.00485423 0)
(1.00455 0.00323664 0)
(1.0051 -0.000232906 0)
(1.00329 -0.00218288 0)
(1.00152 -0.00573329 0)
(0.997339 -0.00657222 0)
(0.994862 -0.00468008 0)
(0.994461 -0.00524405 0)
(0.991253 -0.00315579 0)
(0.989229 -0.000128541 0)
(0.990195 0.000385433 0)
(0.990175 0.00260543 0)
(0.989909 0.00565265 0)
(0.991116 0.00672568 0)
(1.00027 1.29598e-05 0)
(1.00038 -0.000239953 0)
(0.999522 -0.00101291 0)
(0.998704 -0.0011039 0)
(0.997364 0.000944299 0)
(0.996906 0.00281508 0)
(0.999876 0.00455955 0)
(1.00434 0.00311328 0)
(1.00487 -0.000223224 0)
(1.00304 -0.00207901 0)
(1.00132 -0.00536005 0)
(0.997436 -0.00626331 0)
(0.994987 -0.00442654 0)
(0.994618 -0.004834 0)
(0.991685 -0.00300866 0)
(0.989579 1.09742e-05 0)
(0.990498 0.000639033 0)
(0.99073 0.0024964 0)
(0.990408 0.00541073 0)
(0.991384 0.00665378 0)
(1.00028 1.44912e-05 0)
(1.00036 -0.000268529 0)
(0.999522 -0.000951456 0)
(0.998788 -0.00099129 0)
(0.997506 0.000910186 0)
(0.997034 0.00277664 0)
(0.999875 0.0042826 0)
(1.00413 0.00296832 0)
(1.00464 -0.000196477 0)
(1.0028 -0.00198207 0)
(1.00112 -0.00499816 0)
(0.997531 -0.00593461 0)
(0.995127 -0.00417151 0)
(0.994775 -0.00442346 0)
(0.992117 -0.0028417 0)
(0.989955 0.000135017 0)
(0.990793 0.000891603 0)
(0.991261 0.00241952 0)
(0.990934 0.0051254 0)
(0.99166 0.00654363 0)
(1.00028 1.35996e-05 0)
(1.00035 -0.000289913 0)
(0.999524 -0.000900113 0)
(0.998872 -0.000873961 0)
(0.997649 0.000876157 0)
(0.99716 0.00273095 0)
(0.999873 0.00402818 0)
(1.00393 0.00280565 0)
(1.00441 -0.000155672 0)
(1.00256 -0.00188244 0)
(1.00093 -0.00465164 0)
(0.997625 -0.00559158 0)
(0.99528 -0.00392118 0)
(0.994935 -0.00402355 0)
(0.992547 -0.00265776 0)
(0.990357 0.000234373 0)
(0.991086 0.00113175 0)
(0.991761 0.00238569 0)
(0.991477 0.00482206 0)
(0.99196 0.00636969 0)
(1.00028 1.11617e-05 0)
(1.00033 -0.000303629 0)
(0.99953 -0.000861111 0)
(0.998957 -0.000755419 0)
(0.997794 0.000845116 0)
(0.997286 0.00267476 0)
(0.99987 0.00379781 0)
(1.00374 0.00263268 0)
(1.00418 -0.000108786 0)
(1.00234 -0.00176643 0)
(1.00075 -0.00432037 0)
(0.997717 -0.00524918 0)
(0.995445 -0.00366405 0)
(0.995099 -0.00362935 0)
(0.992973 -0.00245642 0)
(0.990784 0.00031644 0)
(0.991383 0.0013454 0)
(0.992226 0.00238638 0)
(0.992025 0.00453181 0)
(0.992292 0.00613357 0)
(1.00029 5.56351e-06 0)
(1.00032 -0.000306616 0)
(0.999539 -0.000831376 0)
(0.999042 -0.000638271 0)
(0.997939 0.00082014 0)
(0.99741 0.00260316 0)
(0.999865 0.00359143 0)
(1.00356 0.00245007 0)
(1.00397 -6.68963e-05 0)
(1.00212 -0.0016318 0)
(1.00057 -0.00399294 0)
(0.997811 -0.00490974 0)
(0.995623 -0.00339131 0)
(0.995266 -0.00323877 0)
(0.993391 -0.00224693 0)
(0.991231 0.000388021 0)
(0.991688 0.00153501 0)
(0.992661 0.00240989 0)
(0.992568 0.00427365 0)
(0.992657 0.00586101 0)
(1.00029 -2.68288e-06 0)
(1.00031 -0.000301346 0)
(0.999551 -0.000808927 0)
(0.999128 -0.000523515 0)
(0.998083 0.000803486 0)
(0.997534 0.00251778 0)
(0.999857 0.00340648 0)
(1.00338 0.00226466 0)
(1.00376 -3.57208e-05 0)
(1.00191 -0.00148501 0)
(1.0004 -0.00366269 0)
(0.997906 -0.00457008 0)
(0.995814 -0.00312467 0)
(0.995436 -0.00285271 0)
(0.993801 -0.00203574 0)
(0.991699 0.000433673 0)
(0.992004 0.00169894 0)
(0.993066 0.00244992 0)
(0.993096 0.00404157 0)
(0.993052 0.00556181 0)
(1.00029 -1.30023e-05 0)
(1.00029 -0.000286212 0)
(0.999567 -0.000793051 0)
(0.999215 -0.000419019 0)
(0.998226 0.000799579 0)
(0.997657 0.00241739 0)
(0.999846 0.00323926 0)
(1.0032 0.00209241 0)
(1.00357 -2.22884e-05 0)
(1.00171 -0.00132962 0)
(1.00023 -0.00333032 0)
(0.998002 -0.00424345 0)
(0.99602 -0.00287537 0)
(0.99561 -0.00246804 0)
(0.994195 -0.001806 0)
(0.992183 0.00045216 0)
(0.992337 0.00182128 0)
(0.993445 0.00249948 0)
(0.993602 0.00383943 0)
(0.993476 0.00523967 0)
(1.00029 -2.64088e-05 0)
(1.00028 -0.000261376 0)
(0.999584 -0.000780134 0)
(0.999303 -0.000332674 0)
(0.998366 0.000814825 0)
(0.997779 0.00230274 0)
(0.999834 0.00308262 0)
(1.00303 0.00194293 0)
(1.00339 -2.57933e-05 0)
(1.00153 -0.00117731 0)
(1.00007 -0.00298872 0)
(0.998096 -0.00391908 0)
(0.996243 -0.00263671 0)
(0.995793 -0.00209434 0)
(0.99457 -0.00155113 0)
(0.992674 0.000465538 0)
(0.992691 0.00189362 0)
(0.993804 0.00254421 0)
(0.994079 0.00368278 0)
(0.993918 0.00491403 0)
(1.00029 -4.13387e-05 0)
(1.00026 -0.000230685 0)
(0.999602 -0.000767105 0)
(0.999394 -0.000263158 0)
(0.998503 0.000844777 0)
(0.997899 0.00218759 0)
(0.999821 0.00292505 0)
(1.00287 0.00181505 0)
(1.00322 -3.4173e-05 0)
(1.00137 -0.00103467 0)
(0.99992 -0.00263877 0)
(0.998187 -0.00358192 0)
(0.99648 -0.0024134 0)
(0.995987 -0.00174842 0)
(0.994925 -0.00127803 0)
(0.993165 0.000494626 0)
(0.993064 0.00192215 0)
(0.994155 0.00256307 0)
(0.994524 0.00356437 0)
(0.994361 0.00462029 0)
(1.00029 -5.94912e-05 0)
(1.00024 -0.000192322 0)
(0.99962 -0.000749728 0)
(0.999488 -0.000216384 0)
(0.998636 0.000887571 0)
(0.998015 0.00207283 0)
(0.999808 0.00276361 0)
(1.0027 0.00171497 0)
(1.00306 -4.39105e-05 0)
(1.00122 -0.000910901 0)
(0.999778 -0.00228091 0)
(0.998271 -0.00323098 0)
(0.996728 -0.0022124 0)
(0.996197 -0.00143741 0)
(0.995265 -0.000998977 0)
(0.993645 0.000545807 0)
(0.993448 0.00193253 0)
(0.994505 0.00254513 0)
(0.994947 0.00344692 0)
(0.99479 0.00438382 0)
(1.00029 -7.87902e-05 0)
(1.00022 -0.000150472 0)
(0.999636 -0.000725062 0)
(0.999584 -0.000195588 0)
(0.998764 0.000935584 0)
(0.998125 0.0019702 0)
(0.999797 0.00259449 0)
(1.00254 0.00163631 0)
(1.00291 -4.28768e-05 0)
(1.0011 -0.000816283 0)
(0.99965 -0.00193807 0)
(0.998345 -0.00286136 0)
(0.996983 -0.0020177 0)
(0.996425 -0.00115856 0)
(0.995592 -0.000722791 0)
(0.994114 0.000615232 0)
(0.993835 0.00195114 0)
(0.994849 0.0025093 0)
(0.995362 0.0033008 0)
(0.9952 0.00419561 0)
(1.00029 -9.83286e-05 0)
(1.0002 -0.000108683 0)
(0.999647 -0.000688781 0)
(0.999683 -0.000197436 0)
(0.998891 0.000979116 0)
(0.998226 0.00188897 0)
(0.999786 0.00241166 0)
(1.00239 0.00156604 0)
(1.00276 -2.18683e-05 0)
(1.001 -0.000736699 0)
(0.99954 -0.00162664 0)
(0.998408 -0.00247647 0)
(0.997239 -0.00181271 0)
(0.996671 -0.000929011 0)
(0.995911 -0.000450871 0)
(0.994571 0.000697445 0)
(0.994221 0.00197014 0)
(0.995177 0.00248836 0)
(0.995771 0.00312164 0)
(0.995601 0.00400897 0)
(1.00028 -0.000117905 0)
(1.00017 -6.8166e-05 0)
(0.999653 -0.000639392 0)
(0.999783 -0.000219917 0)
(0.999017 0.00101353 0)
(0.998315 0.00183159 0)
(0.999775 0.002222 0)
(1.00224 0.00149836 0)
(1.00262 2.84787e-05 0)
(1.00092 -0.000663618 0)
(0.999453 -0.00135134 0)
(0.998465 -0.00208191 0)
(0.997485 -0.00158631 0)
(0.996935 -0.000741314 0)
(0.996228 -0.000199538 0)
(0.995013 0.000793462 0)
(0.99461 0.00197594 0)
(0.995483 0.0024969 0)
(0.996163 0.00294948 0)
(0.996008 0.00378808 0)
(1.00028 -0.000136567 0)
(1.00015 -3.19004e-05 0)
(0.999651 -0.000575652 0)
(0.999883 -0.000256525 0)
(0.999144 0.00103067 0)
(0.998393 0.00180005 0)
(0.999761 0.00204155 0)
(1.00211 0.00142268 0)
(1.00249 0.00010453 0)
(1.00085 -0.000586094 0)
(0.999391 -0.00111987 0)
(0.998519 -0.00170088 0)
(0.997717 -0.00133397 0)
(0.997208 -0.000566826 0)
(0.996546 -3.1019e-06 0)
(0.995438 0.000891824 0)
(0.995001 0.00197541 0)
(0.995772 0.00251006 0)
(0.996521 0.0028265 0)
(0.996418 0.00354249 0)
(1.00027 -0.000151721 0)
(1.00012 -2.86905e-06 0)
(0.99964 -0.000497971 0)
(0.99998 -0.000304947 0)
(0.999274 0.00102374 0)
(0.998459 0.00179602 0)
(0.999739 0.00187492 0)
(1.00198 0.00132616 0)
(1.00235 0.000192127 0)
(1.00079 -0.000489418 0)
(0.999353 -0.000924935 0)
(0.998579 -0.00135308 0)
(0.997933 -0.0010605 0)
(0.997477 -0.000398484 0)
(0.996863 0.000143733 0)
(0.995855 0.000970815 0)
(0.995392 0.00197568 0)
(0.996053 0.00251723 0)
(0.996841 0.00274425 0)
(0.996817 0.0033095 0)
(1.00026 -0.000164062 0)
(1.00009 1.69967e-05 0)
(0.99962 -0.000404505 0)
(1.00007 -0.000356901 0)
(0.999409 0.000985131 0)
(0.998513 0.00181033 0)
(0.999705 0.00173451 0)
(1.00187 0.001206 0)
(1.00223 0.000286315 0)
(1.00073 -0.000358258 0)
(0.999334 -0.000757355 0)
(0.998649 -0.0010495 0)
(0.998135 -0.000778422 0)
(0.997735 -0.000219431 0)
(0.997176 0.000274133 0)
(0.996266 0.00101676 0)
(0.995787 0.00196006 0)
(0.996327 0.00252755 0)
(0.997124 0.00269328 0)
(0.997196 0.00310843 0)
(1.00025 -0.000171219 0)
(1.00007 2.6229e-05 0)
(0.99959 -0.000298516 0)
(1.00015 -0.000405425 0)
(0.999551 0.000914217 0)
(0.998561 0.00183252 0)
(0.999655 0.00163379 0)
(1.00176 0.00107374 0)
(1.00213 0.000365409 0)
(1.00067 -0.000192888 0)
(0.999323 -0.000595371 0)
(0.998731 -0.000800106 0)
(0.998331 -0.000512829 0)
(0.997978 -1.32738e-05 0)
(0.997472 0.000404794 0)
(0.996663 0.00103871 0)
(0.996192 0.00191493 0)
(0.996607 0.00252367 0)
(0.997371 0.00268051 0)
(0.997551 0.0029287 0)
(1.00023 -0.000172537 0)
(1.00005 2.21596e-05 0)
(0.99955 -0.000184992 0)
(1.00022 -0.000441466 0)
(0.9997 0.000810333 0)
(0.998604 0.00185026 0)
(0.999585 0.00157724 0)
(1.00167 0.000938686 0)
(1.00204 0.000413399 0)
(1.00061 -1.58392e-05 0)
(0.999313 -0.000420152 0)
(0.998822 -0.000596844 0)
(0.998528 -0.000278107 0)
(0.998208 0.000206409 0)
(0.997743 0.000554061 0)
(0.997038 0.00106312 0)
(0.996603 0.00183624 0)
(0.996906 0.00248174 0)
(0.997584 0.00270386 0)
(0.99787 0.00279058 0)
(1.00022 -0.000166895 0)
(1.00003 2.12115e-06 0)
(0.999504 -6.88863e-05 0)
(1.00027 -0.000456534 0)
(0.999855 0.000675983 0)
(0.998651 0.00185107 0)
(0.999494 0.00156547 0)
(1.00157 0.000812614 0)
(1.00198 0.000421256 0)
(1.00056 0.000164706 0)
(0.999297 -0.000219164 0)
(0.998916 -0.000424 0)
(0.998733 -8.59409e-05 0)
(0.998433 0.000416651 0)
(0.997985 0.000729862 0)
(0.997375 0.00111212 0)
(0.997007 0.00174115 0)
(0.997241 0.0023804 0)
(0.997788 0.00272707 0)
(0.998133 0.00273119 0)
(1.0002 -0.000154552 0)
(1.00002 -3.0602e-05 0)
(0.999452 5.1871e-05 0)
(1.0003 -0.000447487 0)
(1.00001 0.000521643 0)
(0.998708 0.00182823 0)
(0.999382 0.00159528 0)
(1.00145 0.000710523 0)
(1.00194 0.000383475 0)
(1.00053 0.000341251 0)
(0.999271 7.05254e-06 0)
(0.999 -0.000261742 0)
(0.998945 4.33535e-05 0)
(0.998663 0.000591723 0)
(0.998206 0.000915638 0)
(0.997664 0.00119177 0)
(0.997378 0.00167463 0)
(0.997607 0.00222108 0)
(0.99802 0.00268654 0)
(0.998334 0.00274849 0)
(1.00018 -0.000134748 0)
(1.00002 -7.61597e-05 0)
(0.999401 0.000170944 0)
(1.00031 -0.0004079 0)
(1.00017 0.000357057 0)
(0.998782 0.00176653 0)
(0.999255 0.00165458 0)
(1.00132 0.000654422 0)
(1.00192 0.000313065 0)
(1.00052 0.000480459 0)
(0.999234 0.000259995 0)
(0.99906 -8.4743e-05 0)
(0.999157 0.000125216 0)
(0.99891 0.00071186 0)
(0.998415 0.00109385 0)
(0.99791 0.0012984 0)
(0.997697 0.00165323 0)
(0.99797 0.00206072 0)
(0.998313 0.00254798 0)
(0.998507 0.00278135 0)
(1.00016 -0.000108678 0)
(1.00002 -0.00012904 0)
(0.999352 0.000274216 0)
(1.00029 -0.000340807 0)
(1.00033 0.000190617 0)
(0.998877 0.00166904 0)
(0.999121 0.00172807 0)
(1.00116 0.000647697 0)
(1.00191 0.000228177 0)
(1.00055 0.000559377 0)
(0.999198 0.000521583 0)
(0.999084 0.000120759 0)
(0.999354 0.000193997 0)
(0.999176 0.000761561 0)
(0.998629 0.00124501 0)
(0.99812 0.00143162 0)
(0.997959 0.00166253 0)
(0.998293 0.00195173 0)
(0.998654 0.00233818 0)
(0.998714 0.00273696 0)
(1.00014 -7.77271e-05 0)
(1.00003 -0.000187572 0)
(0.999311 0.00035962 0)
(1.00025 -0.000242653 0)
(1.00047 3.6343e-05 0)
(0.998998 0.00152947 0)
(0.99899 0.00180225 0)
(1.00097 0.000691509 0)
(1.0019 0.000146642 0)
(1.00062 0.000573117 0)
(0.999175 0.000752599 0)
(0.99907 0.000357517 0)
(0.999515 0.000271927 0)
(0.999458 0.000751336 0)
(0.998867 0.00133256 0)
(0.998302 0.00157499 0)
(0.998168 0.00170225 0)
(0.998554 0.00189262 0)
(0.998995 0.00214117 0)
(0.998992 0.00257957 0)
(1.00011 -4.22146e-05 0)
(1.00004 -0.00024589 0)
(0.999283 0.000420241 0)
(1.00019 -0.000123215 0)
(1.00059 -9.62687e-05 0)
(0.999145 0.00134886 0)
(0.998875 0.0018572 0)
(1.00075 0.000788663 0)
(1.00188 8.82508e-05 0)
(1.00073 0.000526221 0)
(0.999184 0.00093706 0)
(0.999025 0.000620194 0)
(0.999624 0.000382181 0)
(0.999735 0.000723372 0)
(0.999143 0.00134312 0)
(0.998482 0.00169984 0)
(0.998328 0.00178312 0)
(0.998752 0.00186081 0)
(0.999289 0.00200709 0)
(0.999321 0.00236086 0)
(1.00009 -6.58064e-06 0)
(1.00006 -0.000296239 0)
(0.999269 0.000452129 0)
(1.0001 1.32851e-05 0)
(1.00069 -0.000199719 0)
(0.999316 0.00113963 0)
(0.998787 0.00187622 0)
(1.0005 0.000923519 0)
(1.00183 7.21368e-05 0)
(1.00088 0.000441601 0)
(0.999239 0.00105572 0)
(0.998962 0.000882861 0)
(0.999672 0.000530154 0)
(0.999985 0.000703075 0)
(0.999451 0.00128523 0)
(0.998688 0.00176631 0)
(0.998447 0.00189039 0)
(0.998888 0.00186349 0)
(0.999521 0.00191549 0)
(0.999644 0.00216952 0)
(1.00007 2.93171e-05 0)
(1.00009 -0.000337585 0)
(0.999276 0.000456324 0)
(1.00001 0.000160693 0)
(1.00075 -0.000259088 0)
(0.999506 0.000914539 0)
(0.998738 0.0018533 0)
(1.00024 0.00108254 0)
(1.00173 0.000108303 0)
(1.00103 0.00033928 0)
(0.99935 0.00109817 0)
(0.998902 0.00112304 0)
(0.999659 0.000718282 0)
(1.00018 0.000711067 0)
(0.999774 0.00119296 0)
(0.998943 0.00175456 0)
(0.998559 0.00198613 0)
(0.99896 0.00192068 0)
(0.999691 0.0018472 0)
(0.999925 0.00203295 0)
(1.00004 6.0764e-05 0)
(1.00011 -0.000360194 0)
(0.999302 0.000429049 0)
(0.999908 0.000304837 0)
(1.00079 -0.000266635 0)
(0.999708 0.000684323 0)
(0.998736 0.00177602 0)
(0.999976 0.00124562 0)
(1.00159 0.000200581 0)
(1.00118 0.000242564 0)
(0.999519 0.00106341 0)
(0.998869 0.00131377 0)
(0.999595 0.000931468 0)
(1.00031 0.000758424 0)
(1.00008 0.00110267 0)
(0.999246 0.00167381 0)
(0.998702 0.00202653 0)
(0.998979 0.00201726 0)
(0.999788 0.00182209 0)
(1.00016 0.00192155 0)
(1.00002 8.74324e-05 0)
(1.00013 -0.000365553 0)
(0.999349 0.000377129 0)
(0.999811 0.000435435 0)
(1.00078 -0.000227421 0)
(0.999909 0.000467454 0)
(0.998786 0.00164558 0)
(0.999732 0.00139029 0)
(1.0014 0.0003421 0)
(1.00131 0.000175848 0)
(0.999737 0.000968793 0)
(0.998883 0.00143454 0)
(0.999497 0.00114809 0)
(1.00037 0.000849968 0)
(1.00035 0.00103265 0)
(0.999579 0.00155326 0)
(0.998907 0.00198844 0)
(0.998985 0.00210678 0)
(0.999801 0.00186263 0)
(1.00034 0.00182473 0)
(1.00001 0.000107156 0)
(1.00015 -0.000351398 0)
(0.999415 0.000310909 0)
(0.999725 0.000539038 0)
(1.00074 -0.000146273 0)
(1.0001 0.000282234 0)
(0.998888 0.00147325 0)
(0.999522 0.00150221 0)
(1.00116 0.000518987 0)
(1.00139 0.000155019 0)
(0.999988 0.000840972 0)
(0.998961 0.00147499 0)
(0.999393 0.0013451 0)
(1.00035 0.000983852 0)
(1.00056 0.000997767 0)
(0.999912 0.00143093 0)
(0.999176 0.0018846 0)
(0.999032 0.00213829 0)
(0.99974 0.00195516 0)
(1.00045 0.00176554 0)
(0.999993 0.000118595 0)
(1.00017 -0.000317486 0)
(0.999494 0.000236769 0)
(0.999659 0.000612268 0)
(1.00067 -3.93957e-05 0)
(1.00026 0.000137709 0)
(0.999038 0.00126765 0)
(0.999363 0.00155934 0)
(1.00091 0.000714031 0)
(1.00141 0.000191326 0)
(1.00025 0.000708029 0)
(0.999108 0.00143624 0)
(0.999312 0.00149388 0)
(1.00027 0.00113924 0)
(1.0007 0.0010023 0)
(1.00022 0.00132238 0)
(0.999485 0.00174867 0)
(0.999157 0.00208386 0)
(0.999653 0.00204903 0)
(1.00046 0.00176879 0)
(0.999982 0.000122558 0)
(1.00017 -0.000269287 0)
(0.999582 0.000164215 0)
(0.999613 0.000650561 0)
(1.00057 8.43053e-05 0)
(1.00039 4.52178e-05 0)
(0.999222 0.00105586 0)
(0.999264 0.00155261 0)
(1.00064 0.000902321 0)
(1.00136 0.000283663 0)
(1.00049 0.000595438 0)
(0.999315 0.00133689 0)
(0.999278 0.00157704 0)
(1.00015 0.00129589 0)
(1.00076 0.00105311 0)
(1.00048 0.00123673 0)
(0.999801 0.00161685 0)
(0.999364 0.00196121 0)
(0.999604 0.00208485 0)