/*--------------------------------*- C++ -*----------------------------------*\
| =========                 |                                                 |
| \\      /  F ield         | OpenFOAM: The Open Source CFD Toolbox           |
|  \\    /   O peration     | Version:  2106                                  |
|   \\  /    A nd           | Website:  www.openfoam.com                      |
|    \\/     M anipulation  |                                                 |
\*---------------------------------------------------------------------------*/
FoamFile
{
    version     2.0;
    format      ascii;
    arch        "LSB;label=32;scalar=64";
    class       volScalarField;
    location    "0.94";
    object      p;
}
// * * * * * * * * * * * * * * * * * * * * * * * * * * * * * * * * * * * * * //

dimensions      [0 2 -2 0 0 0 0];

internalField   nonuniform List<scalar> 
9600
(
1.18948e-10
0.00282262
0.00296202
0.00373471
0.00144535
0.00280119
0.00337829
0.00335704
0.00369116
0.00352657
0.00277604
0.00284201
0.00248662
0.00393428
0.00383553
0.00457176
0.00485612
0.00635252
0.0075241
0.0111994
1.69222e-06
0.0028252
0.00295785
0.00373352
0.00145291
0.00280554
0.00337499
0.00334902
0.0036907
0.00351766
0.00279608
0.00284028
0.00249075
0.00393001
0.00384678
0.00455819
0.00487617
0.00626998
0.00755059
0.0108544
4.70213e-06
0.00282928
0.0029528
0.00373408
0.00146246
0.00280681
0.00336952
0.00333709
0.00368881
0.00351127
0.00281361
0.00284062
0.00250175
0.00392112
0.00385801
0.00453744
0.00490157
0.00618023
0.00755492
0.0104522
9.36545e-06
0.0028357
0.00294745
0.00373414
0.00147296
0.0028052
0.0033642
0.00332471
0.00368437
0.00350835
0.00282928
0.00284479
0.00251737
0.00390779
0.00386833
0.00451221
0.00492697
0.00609322
0.00753062
0.0100753
1.66346e-05
0.00284413
0.00294093
0.00373258
0.00148554
0.0028026
0.00335972
0.00331156
0.00367713
0.0035073
0.00284459
0.00284983
0.00253539
0.00389156
0.00387889
0.00448327
0.00495314
0.00600288
0.0074816
0.00972744
2.69674e-05
0.0028533
0.00293272
0.0037293
0.00150072
0.00279995
0.00335599
0.00329738
0.00366759
0.00350653
0.00285998
0.00285356
0.00255507
0.00387359
0.00388977
0.00445252
0.00497945
0.00590851
0.00741132
0.00940538
4.0214e-05
0.00286233
0.00292283
0.00372432
0.00151829
0.00279781
0.00335337
0.00328268
0.00365651
0.00350474
0.00287577
0.00285534
0.00257617
0.0038545
0.00390119
0.00442135
0.00500283
0.00581693
0.00732133
0.00910449
5.58962e-05
0.00287095
0.00291151
0.00371777
0.00153794
0.00279664
0.00335227
0.00326798
0.00364452
0.00350125
0.00289232
0.00285507
0.00259859
0.00383475
0.00391299
0.00439009
0.00502113
0.00572994
0.00721172
0.0088198
7.34607e-05
0.0028792
0.00289919
0.00371001
0.00155954
0.00279658
0.00335276
0.00325344
0.0036321
0.00349593
0.00290986
0.00285287
0.00262227
0.00381456
0.00392453
0.00435938
0.00503256
0.00564787
0.00708223
0.00854696
9.24452e-05
0.00288728
0.00288636
0.00370141
0.00158289
0.00279739
0.00335463
0.00323898
0.00361962
0.00348897
0.00292846
0.00284897
0.00264688
0.00379421
0.00393507
0.00433003
0.00503528
0.00557643
0.00693414
0.00828237
0.000112549
0.00289533
0.00287348
0.00369213
0.00160777
0.00279873
0.0033576
0.0032243
0.00360737
0.00348063
0.00294815
0.00284356
0.00267191
0.00377432
0.00394365
0.00430244
0.00502783
0.0055041
0.00677016
0.00802192
0.000133622
0.00290344
0.00286087
0.00368216
0.00163392
0.00280032
0.00336147
0.00320908
0.00359565
0.00347112
0.00296884
0.00283686
0.00269676
0.00375567
0.00394912
0.00427684
0.00500954
0.0054336
0.00659349
0.00776144
0.000155617
0.00291159
0.00284877
0.00367141
0.00166114
0.00280197
0.00336607
0.00319303
0.00358464
0.00346066
0.00299029
0.00282917
0.00272077
0.00373906
0.00395053
0.00425325
0.00498026
0.0053625
0.00640783
0.00749829
0.000178548
0.00291971
0.00283735
0.0036598
0.00168934
0.00280353
0.0033714
0.00317593
0.00357448
0.0034494
0.00301222
0.00282089
0.00274314
0.00372537
0.00394731
0.00423115
0.00494038
0.00528744
0.00621725
0.00723179
0.000202463
0.00292768
0.00282673
0.00364723
0.00171845
0.00280483
0.00337751
0.00315762
0.00356522
0.00343746
0.00303426
0.00281257
0.00276289
0.00371524
0.00393926
0.00420953
0.00489116
0.00520472
0.00602488
0.0069628
0.000227433
0.00293538
0.00281701
0.00363367
0.00174849
0.00280573
0.0033845
0.003138
0.00355685
0.00342502
0.00305591
0.00280485
0.00277918
0.003709
0.0039264
0.00418702
0.00483479
0.0051115
0.00583188
0.00669306
0.000253541
0.00294265
0.00280827
0.00361908
0.00177949
0.00280603
0.00339251
0.00311701
0.00354928
0.00341232
0.00307656
0.00279845
0.00279132
0.0037067
0.00390887
0.00416155
0.00477364
0.00500652
0.00563799
0.00642498
0.00028088
0.00294934
0.00280062
0.00360343
0.0018115
0.00280556
0.00340162
0.00309467
0.00354235
0.00339974
0.00309545
0.00279416
0.0027988
0.003708
0.00388759
0.0041303
0.0047092
0.00488973
0.00544248
0.00616111
0.00030955
0.00295526
0.00279414
0.00358667
0.00184455
0.0028041
0.00341195
0.00307106
0.00353582
0.00338776
0.00311173
0.0027926
0.00280135
0.00371197
0.00386425
0.00409045
0.00464193
0.00476348
0.00524395
0.00590339
0.000339653
0.00296023
0.00278895
0.00356879
0.00187868
0.00280151
0.00342352
0.00304636
0.00352935
0.00337696
0.00312467
0.00279409
0.00279911
0.00371721
0.0038406
0.0040399
0.00457125
0.00463142
0.0050408
0.00565293
0.000371297
0.00296407
0.00278512
0.00354975
0.0019139
0.00279766
0.00343632
0.00302081
0.00352247
0.00336796
0.00313368
0.00279872
0.00279253
0.00372196
0.00381816
0.00397761
0.00449605
0.00449734
0.00483198
0.00540959
0.000404596
0.0029666
0.00278275
0.00352951
0.0019502
0.00279246
0.0034503
0.00299474
0.00351463
0.00336139
0.00313834
0.00280635
0.00278237
0.00372414
0.00379809
0.0039036
0.00441357
0.00436476
0.00461779
0.00517152
0.00043966
0.00296763
0.0027819
0.00350806
0.00198757
0.00278589
0.00346529
0.00296858
0.00350524
0.00335771
0.00313837
0.00281653
0.00276971
0.00372174
0.00378068
0.00381866
0.00432167
0.00423685
0.00440042
0.0049351
0.000476608
0.00296699
0.00278259
0.00348545
0.00202593
0.00277794
0.00348112
0.00294285
0.00349379
0.00335727
0.00313366
0.00282853
0.00275575
0.00371279
0.0037658
0.00372444
0.00421797
0.00411563
0.0041841
0.00469622
0.000515554
0.00296451
0.00278481
0.00346172
0.00206519
0.00276863
0.00349754
0.00291809
0.00347972
0.00336043
0.00312427
0.00284131
0.00274167
0.00369533
0.00375307
0.00362373
0.00409976
0.00400072
0.00397422
0.00445276
0.0005566
0.00296008
0.00278854
0.00343699
0.00210525
0.00275822
0.00351428
0.00289488
0.00346245
0.0033675
0.0031105
0.00285359
0.00272876
0.00366781
0.00374087
0.00352005
0.00396566
0.00388901
0.00377597
0.00420637
0.000599843
0.00295359
0.00279363
0.00341141
0.00214604
0.00274683
0.00353102
0.0028738
0.00344145
0.00337861
0.00309273
0.00286392
0.00271832
0.00362918
0.00372657
0.00341749
0.00381708
0.00377634
0.0035919
0.00396108
0.000645378
0.00294499
0.00279989
0.00338516
0.00218745
0.00273453
0.00354747
0.00285544
0.00341619
0.00339373
0.00307167
0.00287042
0.00271126
0.00357921
0.00370763
0.0033196
0.00365631
0.00365872
0.00342184
0.00372053
0.000693279
0.00293433
0.00280711
0.00335837
0.00222937
0.00272151
0.00356329
0.00284044
0.00338612
0.00341261
0.00304835
0.00287086
0.00270795
0.003519
0.00368092
0.00322829
0.0034866
0.00353373
0.00326526
0.00348693
0.000743588
0.00292166
0.00281504
0.00333122
0.00227174
0.00270789
0.00357811
0.00282965
0.00335057
0.00343481
0.00302422
0.00286289
0.00270828
0.00345042
0.00364315
0.00314451
0.00331244
0.00339978
0.00312173
0.00326213
0.000796322
0.00290715
0.00282341
0.00330386
0.00231455
0.00269376
0.00359145
0.00282392
0.00330908
0.003461
0.00300097
0.00284403
0.00271138
0.00337647
0.00359196
0.00306796
0.0031387
0.00325535
0.00298989
0.00304924
0.000851465
0.00289106
0.00283194
0.00327633
0.00235779
0.00267928
0.00360277
0.00282411
0.0032616
0.00348728
0.00298069
0.00281212
0.00271465
0.00330156
0.0035269
0.00299638
0.00297036
0.00310014
0.00286605
0.00285248
0.000908961
0.00287369
0.00284043
0.00324852
0.00240153
0.00266482
0.00361132
0.00283109
0.00320828
0.00351141
0.00296593
0.00276681
0.00271411
0.00322958
0.00344949
0.002927
0.00281136
0.0029363
0.00274438
0.00267442
0.000968729
0.00285535
0.00284873
0.00322024
0.0024458
0.00265092
0.00361628
0.0028457
0.00314959
0.00353036
0.00295883
0.00270918
0.00270551
0.00316323
0.00336246
0.00285681
0.00266358
0.00276872
0.00261944
0.00251365
0.00103066
0.00283634
0.00285677
0.00319126
0.00249037
0.00263834
0.00361673
0.00286839
0.0030868
0.00354052
0.00296032
0.00264191
0.00268489
0.00310378
0.00326975
0.00277878
0.00252589
0.00260329
0.00248947
0.00236526
0.00109467
0.00281693
0.00286471
0.00316121
0.00253473
0.00262811
0.00361147
0.00289915
0.00302212
0.00353824
0.00296974
0.00256959
0.00264949
0.00305017
0.0031759
0.00269269
0.0023952
0.0024441
0.00235721
0.00222422
0.00116066
0.0027973
0.00287289
0.00312986
0.00257817
0.00262157
0.00359931
0.00293728
0.00295849
0.00352062
0.00298515
0.00249749
0.00259839
0.00299963
0.00308599
0.00259969
0.00226751
0.00229196
0.00222736
0.0020889
0.00122856
0.00277746
0.00288181
0.00309727
0.00261938
0.0026204
0.00357965
0.00298062
0.00289929
0.00348646
0.00300317
0.00243007
0.00253215
0.0029482
0.00300316
0.00250253
0.00213909
0.00214485
0.00210333
0.00196147
0.00129838
0.00275739
0.00289172
0.00306389
0.00265652
0.00262579
0.00355271
0.00302616
0.00284744
0.0034362
0.00301978
0.00237046
0.00245286
0.00289203
0.00292802
0.00240467
0.00200778
0.00199963
0.00198597
0.00184556
0.00137008
0.0027371
0.00290276
0.00303073
0.00268761
0.00263789
0.00351967
0.00307041
0.00280488
0.00337271
0.00303064
0.00231996
0.00236392
0.00282814
0.00286035
0.00230978
0.00187329
0.00185293
0.00187383
0.00174449
0.00144358
0.00271654
0.00291498
0.00299926
0.00271072
0.00265585
0.00348283
0.00310986
0.00277224
0.0033004
0.0030327
0.0022785
0.00226844
0.00275457
0.0027991
0.00222173
0.00173722
0.00170183
0.00176318
0.00165994
0.0015188
0.00269574
0.00292809
0.00297168
0.00272419
0.00267713
0.00344564
0.00314243
0.00274852
0.00322294
0.00302459
0.00224528
0.00216881
0.00266856
0.00274233
0.00214444
0.00160333
0.00154471
0.00164815
0.00158969
0.0015956
0.00267496
0.00294143
0.00295022
0.00272726
0.00269802
0.00341129
0.00316753
0.00273134
0.003143
0.00300777
0.00221941
0.0020678
0.00256908
0.00268603
0.00208158
0.00147738
0.00138226
0.0015228
0.00152594
0.0016738
0.0026547
0.00295393
0.00293646
0.00272037
0.00271427
0.00338132
0.00318646
0.00271813
0.00306222
0.00298257
0.0022001
0.00196849
0.00245506
0.00262511
0.0020344
0.00136556
0.0012184
0.00138497
0.00145796
0.00175321
0.00263553
0.00296407
0.00293148
0.00270618
0.00272139
0.00335571
0.00320224
0.00270719
0.00298077
0.00294947
0.00218693
0.00187421
0.00232774
0.0025544
0.00199927
0.00127313
0.00105886
0.00123721
0.0013782
0.00183364
0.0026181
0.00297022
0.00293574
0.00268865
0.00271573
0.00333225
0.00321795
0.00269832
0.00289798
0.00290819
0.00217984
0.00178869
0.00218981
0.00246873
0.00197033
0.00120332
0.000909488
0.00108335
0.00128582
0.00191488
0.00260312
0.002971
0.00294866
0.00267237
0.00269546
0.00330541
0.00323574
0.00269374
0.00281327
0.00285745
0.00217852
0.00171454
0.00204547
0.00236421
0.00194094
0.00115582
0.000776378
0.000926172
0.00118363
0.00199659
0.00259147
0.00296541
0.00296847
0.00266211
0.00266064
0.00326845
0.00325591
0.0026973
0.00272751
0.00279506
0.00218074
0.00165889
0.0018997
0.00224004
0.00190275
0.00112713
0.000666301
0.000768804
0.00107246
0.00207832
0.00258394
0.00295317
0.00299231
0.0026616
0.00261401
0.00321588
0.00327644
0.00271252
0.00264368
0.00271893
0.00218165
0.0016218
0.00176075
0.00210064
0.00184862
0.00111016
0.000584086
0.000618019
0.000950707
0.00215946
0.00258153
0.00293446
0.00301618
0.00267386
0.00256095
0.00314315
0.00329153
0.00274182
0.00256725
0.0026291
0.00217473
0.0016015
0.00163793
0.00195271
0.00177626
0.0010948
0.000528474
0.000483398
0.000818454
0.0022391
0.00258527
0.00291029
0.00303534
0.00269978
0.00250925
0.00304854
0.00329165
0.00278539
0.00250646
0.00252877
0.00215289
0.00159454
0.00153672
0.00180314
0.0016883
0.00107366
0.000492448
0.000372742
0.000681168
0.00231634
0.00259573
0.00288276
0.00304576
0.00273779
0.00246757
0.00293284
0.0032667
0.0028391
0.00246862
0.00242301
0.00211166
0.00159352
0.00145861
0.00166078
0.00158879
0.00104414
0.000467831
0.00028883
0.000549767
0.00239021
0.00261308
0.00285451
0.00304516
0.002783
0.00244237
0.00280288
0.00320854
0.00289265
0.00245787
0.0023224
0.00205185
0.00158714
0.0014005
0.0015339
0.00148278
0.00100591
0.000448768
0.000229001
0.000435788
0.00245993
0.00263718
0.00282837
0.00303242
0.00282801
0.00243686
0.0026712
0.00311548
0.00293159
0.0024738
0.00224052
0.00197852
0.0015677
0.0013558
0.00142449
0.0013775
0.00096054
0.000431706
0.00018703
0.000345828
0.00252517
0.00266711
0.00280683
0.00300763
0.00286547
0.00245121
0.00255637
0.00299043
0.00294116
0.00251039
0.00218615
0.00189986
0.00153399
0.00131499
0.0013311
0.00127805
0.000911506
0.000415186
0.000156322
0.000279361
0.00258562
0.0027015
0.00279173
0.00297245
0.00289044
0.00248274
0.00246225
0.00284305
0.00291201
0.00255315
0.00216215
0.00182973
0.00148916
0.00127278
0.00124937
0.00118579
0.000861552
0.000399789
0.000132671
0.000230546
0.00264111
0.0027386
0.00278437
0.00292979
0.00290029
0.00252306
0.00239398
0.00268917
0.00284282
0.00258306
0.00216658
0.00177989
0.00143894
0.00122751
0.00117645
0.00110015
0.000810971
0.000386619
0.000115432
0.000192844
0.00269176
0.00277592
0.00278517
0.00288389
0.00289277
0.00256342
0.002352
0.00254484
0.002738
0.00258545
0.00218845
0.00175503
0.0013942
0.00117928
0.00111002
0.0010224
0.000759379
0.000374498
0.000105632
0.000162761
0.00273775
0.00281138
0.00279346
0.00283985
0.00286701
0.00259742
0.00233383
0.00242056
0.00261115
0.00255459
0.0022099
0.00175351
0.00136426
0.00113311
0.0010479
0.000953713
0.000709161
0.00036052
0.000102724
0.000140689
0.0027795
0.00284357
0.00280696
0.0028008
0.00282614
0.00261648
0.00233552
0.00232201
0.00247965
0.00249263
0.00221733
0.00176729
0.00135106
0.00109648
0.000991127
0.000893271
0.000664906
0.000344564
0.000103558
0.000127781
0.00281748
0.00287155
0.0028226
0.00276844
0.00277702
0.00261877
0.00234358
0.00225025
0.00235566
0.00240616
0.00220358
0.00178492
0.0013538
0.00107203
0.000943758
0.000840386
0.000629239
0.000331505
0.000105767
0.000122956
0.00285182
0.00289502
0.00283746
0.00274331
0.00272428
0.00260499
0.0023502
0.00220273
0.00224756
0.00230824
0.00216923
0.00179735
0.00136742
0.00106028
0.000907733
0.000796936
0.00060219
0.000327014
0.000112091
0.00012466
0.00288236
0.00291397
0.00284953
0.00272452
0.00267265
0.00257694
0.00235082
0.00217064
0.00215847
0.00220953
0.00211702
0.00179951
0.00138678
0.00106062
0.000883015
0.000764377
0.000584121
0.000333126
0.000128673
0.00013449
0.00290879
0.00292846
0.00285794
0.0027101
0.00262485
0.00253835
0.00234251
0.00214663
0.00208705
0.00211774
0.00205493
0.00179091
0.00140726
0.00107219
0.000870212
0.000742314
0.000575293
0.000349301
0.000159346
0.000158084
0.00293074
0.00293852
0.00286226
0.00269797
0.00258103
0.00249388
0.00232463
0.00212604
0.00203018
0.00203601
0.00199053
0.00177355
0.00142648
0.00109354
0.000871126
0.000731933
0.000575999
0.000373822
0.000203591
0.000199461
0.00294783
0.0029443
0.0028621
0.00268651
0.002541
0.00244594
0.00229797
0.00210552
0.00198324
0.00196376
0.00192802
0.00175171
0.00144448
0.0011236
0.000888008
0.000737056
0.000589731
0.000408061
0.000258746
0.000259077
0.00295967
0.00294583
0.00285706
0.00267397
0.00250426
0.00239612
0.00226325
0.00208251
0.00194308
0.00190021
0.00186854
0.00172801
0.00146254
0.00116249
0.000922097
0.000761749
0.000621599
0.000458197
0.000327162
0.000336419
0.00296606
0.00294302
0.00284774
0.00265905
0.00246946
0.00234526
0.00222144
0.00205473
0.00190639
0.00184358
0.0018128
0.00170337
0.0014811
0.00121089
0.000975182
0.000809075
0.000676041
0.000531713
0.000417238
0.000435605
0.00296695
0.00293493
0.00283372
0.00264121
0.00243566
0.00229351
0.00217261
0.00202002
0.00186961
0.00179161
0.00176046
0.00167897
0.00150055
0.00126847
0.00104987
0.000884428
0.000760182
0.000637882
0.000541623
0.000567711
0.00296237
0.00292308
0.00281474
0.00261937
0.00240187
0.00224145
0.00211684
0.00197538
0.00182812
0.00174035
0.00170931
0.00165387
0.00152145
0.00133541
0.00114848
0.000996857
0.000886334
0.000790701
0.0007181
0.000752748
0.00295219
0.00290684
0.00279099
0.00259301
0.0023665
0.00218862
0.00205512
0.00191937
0.00177565
0.00168248
0.00165281
0.00162256
0.00154059
0.00141158
0.00127401
0.00115875
0.00107465
0.00101475
0.000976847
0.00102665
0.00293729
0.00288565
0.00276243
0.00256197
0.00232875
0.00213404
0.0019872
0.00185239
0.0017094
0.00160987
0.00157827
0.00156941
0.00154313
0.001488
0.00142579
0.00138198
0.00135996
0.00135761
0.00137504
0.00145398
0.00291797
0.00285966
0.00272961
0.00252602
0.0022872
0.00207684
0.00191336
0.00177313
0.00162825
0.00151977
0.00147846
0.00147528
0.00149013
0.00151754
0.00157025
0.00166649
0.00179176
0.00193202
0.00206145
0.00219728
0.00289394
0.00282948
0.00269389
0.00248605
0.00224079
0.00201495
0.00183386
0.00168195
0.00153073
0.00141111
0.00135311
0.00133803
0.0013619
0.00142352
0.00155255
0.00183791
0.00232249
0.00294019
0.00352894
0.00392622
0.00286514
0.00279609
0.00265524
0.00244271
0.00219062
0.00194841
0.00174514
0.00157769
0.00141981
0.00129378
0.00122871
0.00122504
0.00131846
0.00155419
0.00195414
0.00253183
0.00320293
0.00382812
0.00428738
0.0045028
0.00283319
0.00276025
0.00261381
0.00239506
0.0021372
0.00188325
0.00165103
0.00145581
0.00129154
0.00117442
0.00116087
0.00125291
0.00148194
0.00190505
0.00245881
0.00305589
0.0036348
0.00413462
0.00449571
0.00463699
0.00280008
0.00272366
0.00256996
0.00234229
0.00207957
0.00182101
0.00158213
0.00136552
0.00116513
0.00103334
0.00106628
0.00132022
0.00177163
0.00236029
0.00298701
0.00357649
0.00410319
0.00453351
0.0048178
0.00488655
0.00276807
0.00268761
0.00252812
0.00229181
0.00201512
0.00174271
0.00151327
0.00135813
0.00127454
0.00126531
0.00134172
0.00149652
0.00172076
0.00207562
0.00259295
0.00322575
0.00388933
0.00447978
0.00489041
0.00503014
0.00274042
0.00265318
0.00249017
0.00225359
0.0019755
0.00170223
0.00144796
0.0012316
0.00108802
0.00107289
0.0012535
0.00164221
0.00216719
0.00274986
0.00334551
0.00389597
0.00436311
0.0047246
0.00494849
0.0049759
0.00271665
0.00262394
0.00245351
0.00220387
0.00190979
0.0016298
0.00138908
0.00121853
0.00115052
0.0011929
0.0013689
0.00171582
0.00218439
0.0027111
0.00326222
0.00378997
0.00424913
0.00460909
0.00483847
0.00487765
0.0141976
0.00902417
0.00172445
-0.00373396
-0.00527621
-0.00439565
-0.00304279
-0.00205849
-0.00152789
-0.00114823
-0.000792213
-0.000573701
-0.00046566
-0.000321485
-0.000149512
-1.36349e-05
0.000126218
0.000275412
0.000377423
0.000470852
0.000622746
0.000800104
0.000949932
0.00107323
0.00120208
0.00135894
0.00153107
0.00168423
0.00181125
0.00194577
0.00209263
0.00222536
0.00234955
0.00248223
0.00261333
0.00273585
0.00284882
0.00295517
0.00306717
0.00318819
0.00330987
0.00343368
0.00356792
0.0037108
0.00385375
0.00399035
0.00412311
0.004266
0.00441248
0.00454889
0.00468705
0.00484283
0.00501297
0.00518995
0.0053788
0.00557033
0.00575353
0.00592398
0.00608107
0.0062414
0.00641233
0.00659475
0.0067931
0.00699715
0.0071981
0.00740149
0.00760798
0.00782156
0.00803691
0.00826304
0.0085019
0.00874467
0.00899854
0.00925443
0.00951863
0.00980209
0.0101025
0.0103933
0.0106903
0.0110078
0.0113369
0.0116733
0.0120075
0.0123541
0.0127024
0.0130582
0.0134269
0.0138121
0.0142037
0.0145982
0.0149991
0.0154137
0.0158372
0.016271
0.0167149
0.017158
0.017603
0.0180574
0.0184394
0.0188201
0.0134818
0.00886776
0.00181016
-0.00358584
-0.00518702
-0.00435391
-0.00301732
-0.00204063
-0.00151495
-0.00113815
-0.000783538
-0.000566158
-0.000459343
-0.000316057
-0.000144683
-9.42374e-06
0.000129937
0.000278857
0.000380523
0.000473527
0.000625164
0.000802393
0.000952074
0.00107519
0.00120385
0.00136055
0.00153261
0.00168569
0.0018126
0.00194702
0.00209382
0.0022265
0.00235062
0.00248325
0.00261432
0.0027368
0.00284974
0.00295604
0.003068
0.00318897
0.00331062
0.00343439
0.00356859
0.00371144
0.00385438
0.00399095
0.00412368
0.00426653
0.00441299
0.00454938
0.00468751
0.00484327
0.00501338
0.00519034
0.00537918
0.00557069
0.00575388
0.00592431
0.0060814
0.0062417
0.00641262
0.00659502
0.00679336
0.0069974
0.00719834
0.00740172
0.0076082
0.00782177
0.00803711
0.00826322
0.00850207
0.00874483
0.00899869
0.00925457
0.00951876
0.0098022
0.0101026
0.0103934
0.0106904
0.0110079
0.011337
0.0116733
0.0120076
0.0123542
0.0127024
0.0130583
0.0134269
0.0138121
0.0142037
0.0145982
0.0149992
0.0154137
0.0158372
0.016271
0.0167149
0.017158
0.0176031
0.0180574
0.0184394
0.01882
0.0127932
0.00870011
0.00198778
-0.00330562
-0.00503024
-0.00429598
-0.00298914
-0.00201994
-0.00149862
-0.00112534
-0.000773305
-0.000557783
-0.000452335
-0.000309976
-0.000139392
-4.98897e-06
0.000133726
0.000282286
0.000383563
0.000476141
0.000627508
0.000804558
0.000954059
0.001077
0.0012055
0.00136207
0.00153403
0.00168703
0.00181382
0.00194814
0.0020949
0.00222752
0.00235156
0.00248415
0.00261519
0.00273763
0.00285054
0.00295679
0.00306871
0.00318966
0.00331128
0.003435
0.00356918
0.00371201
0.00385492
0.00399148
0.00412417
0.004267
0.00441345
0.00454981
0.0046879
0.00484364
0.00501374
0.00519067
0.0053795
0.00557101
0.0057542
0.00592462
0.00608168
0.00624196
0.00641287
0.00659526
0.00679358
0.00699762
0.00719855
0.00740192
0.00760838
0.00782195
0.00803728
0.00826338
0.00850222
0.00874497
0.00899883
0.00925469
0.00951888
0.00980231
0.0101027
0.0103935
0.0106905
0.0110079
0.0113371
0.0116734
0.0120077
0.0123542
0.0127025
0.0130583
0.013427
0.0138122
0.0142038
0.0145983
0.0149992
0.0154137
0.0158373
0.016271
0.0167149
0.0171581
0.0176031
0.0180575
0.0184395
0.0188201
0.0121433
0.00853329
0.00222046
-0.00294651
-0.00481243
-0.00421177
-0.00294699
-0.00198862
-0.00147363
-0.00110623
-0.000759335
-0.000547025
-0.000443054
-0.000301622
-0.000132071
1.17001e-06
0.000138873
0.000286792
0.000387648
0.000479785
0.000630639
0.000807195
0.000956388
0.0010792
0.00120755
0.00136392
0.0015357
0.00168856
0.00181521
0.00194941
0.00209609
0.00222862
0.00235258
0.00248512
0.00261611
0.0027385
0.00285137
0.00295758
0.00306946
0.00319038
0.00331197
0.00343565
0.00356979
0.0037126
0.0038555
0.00399204
0.00412469
0.00426749
0.00441392
0.00455026
0.00468831
0.00484402
0.00501411
0.00519102
0.00537984
0.00557136
0.00575453
0.00592494
0.00608196
0.00624222
0.00641312
0.0065955
0.00679382
0.00699786
0.00719877
0.00740212
0.00760858
0.00782214
0.00803745
0.00826354
0.00850238
0.00874512
0.00899897
0.00925482
0.00951899
0.00980241
0.0101028
0.0103936
0.0106906
0.011008
0.0113372
0.0116735
0.0120077
0.0123543
0.0127025
0.0130584
0.013427
0.0138122
0.0142038
0.0145983
0.0149992
0.0154138
0.0158373
0.0162711
0.0167149
0.0171581
0.0176031
0.0180575
0.0184395
0.0188201
0.0115131
0.00835092
0.00246275
-0.00256512
-0.00457037
-0.00411468
-0.0028975
-0.00194956
-0.00144036
-0.00108019
-0.000740785
-0.000533013
-0.000430596
-0.000290163
-0.000121942
9.85361e-06
0.000146079
0.000292956
0.000393487
0.000485337
0.000635322
0.000810809
0.000959435
0.00108217
0.00121043
0.00136645
0.00153784
0.00169048
0.001817
0.00195103
0.00209752
0.00222991
0.0023538
0.00248628
0.00261717
0.00273948
0.0028523
0.00295848
0.00307032
0.0031912
0.00331275
0.0034364
0.0035705
0.00371328
0.00385616
0.00399269
0.00412531
0.00426806
0.00441446
0.00455076
0.00468878
0.00484447
0.00501453
0.00519141
0.00538022
0.00557175
0.00575492
0.0059253
0.00608229
0.00624251
0.00641341
0.00659577
0.00679409
0.00699812
0.00719902
0.00740236
0.0076088
0.00782235
0.00803766
0.00826373
0.00850256
0.00874529
0.00899913
0.00925498
0.00951913
0.00980254
0.0101029
0.0103937
0.0106907
0.0110081
0.0113373
0.0116736
0.0120078
0.0123544
0.0127026
0.0130584
0.0134271
0.0138122
0.0142039
0.0145983
0.0149992
0.0154138
0.0158373
0.0162711
0.016715
0.0171581
0.0176031
0.0180575
0.0184396
0.0188202
0.0109001
0.00814205
0.0026933
-0.00218037
-0.00431617
-0.00401178
-0.00284683
-0.0019078
-0.00140249
-0.00104964
-0.00071898
-0.000516458
-0.000415515
-0.000276061
-0.000109296
2.09562e-05
0.00015534
0.000300828
0.000401247
0.00049312
0.000641943
0.000815734
0.000963462
0.00108619
0.00121441
0.00136988
0.00154058
0.00169289
0.00181931
0.00195311
0.00209927
0.00223145
0.00235528
0.00248769
0.00261843
0.00274061
0.0028534
0.00295955
0.00307133
0.00319215
0.00331366
0.00343728
0.00357133
0.00371406
0.00385694
0.00399348
0.00412607
0.00426875
0.00441508
0.00455134
0.00468934
0.004845
0.00501502
0.00519186
0.00538067
0.00557221
0.00575538
0.00592573
0.00608265
0.00624284
0.00641373
0.0065961
0.00679441
0.00699844
0.00719932
0.00740264
0.00760907
0.0078226
0.0080379
0.00826396
0.00850278
0.00874549
0.00899932
0.00925517
0.00951931
0.0098027
0.010103
0.0103939
0.0106908
0.0110082
0.0113374
0.0116737
0.0120079
0.0123545
0.0127027
0.0130585
0.0134271
0.0138123
0.0142039
0.0145984
0.0149993
0.0154138
0.0158373
0.0162711
0.016715
0.0171581
0.0176032
0.0180576
0.0184398
0.0188203
0.0103076
0.00790445
0.00290598
-0.00179502
-0.00405002
-0.00390293
-0.00279604
-0.00186514
-0.00136185
-0.0010161
-0.000694887
-0.000498159
-0.000398776
-0.000260292
-9.49894e-05
3.37218e-05
0.000166079
0.000310013
0.000410593
0.000502851
0.000650381
0.000822019
0.000968589
0.00109135
0.0012196
0.0013743
0.00154399
0.00169584
0.0018222
0.0019557
0.00210136
0.00223326
0.00235705
0.00248936
0.00261989
0.00274193
0.00285471
0.00296088
0.00307258
0.00319328
0.00331473
0.00343832
0.00357231
0.00371497
0.00385784
0.00399445
0.00412705
0.00426963
0.00441584
0.00455203
0.00469001
0.00484563
0.00501558
0.00519237
0.00538119
0.00557277
0.00575594
0.00592624
0.00608309
0.00624323
0.00641412
0.00659649
0.0067948
0.00699882
0.00719968
0.00740298
0.00760939
0.00782292
0.00803821
0.00826426
0.00850306
0.00874574
0.00899957
0.00925541
0.00951954
0.00980291
0.0101032
0.010394
0.010691
0.0110084
0.0113375
0.0116738
0.012008
0.0123546
0.0127028
0.0130586
0.0134272
0.0138124
0.014204
0.0145985
0.0149993
0.0154139
0.0158374
0.0162712
0.016715
0.0171582
0.0176032
0.0180577
0.01844
0.0188204
0.00974025
0.00764303
0.0030998
-0.00140917
-0.00377049
-0.00378632
-0.00274482
-0.00182232
-0.00131922
-0.000980027
-0.000668769
-0.000478454
-0.000380905
-0.000243439
-7.96125e-05
4.75409e-05
0.000177779
0.000320087
0.000421007
0.000513913
0.000660147
0.000829423
0.000974714
0.00109756
0.00122585
0.00137961
0.001548
0.00169928
0.00182562
0.00195879
0.0021038
0.00223534
0.00235908
0.00249126
0.00262152
0.00274341
0.00285625
0.00296252
0.00307416
0.00319469
0.00331603
0.00343958
0.00357346
0.00371598
0.00385887
0.00399561
0.00412827
0.00427073
0.00441678
0.0045529
0.00469085
0.00484638
0.0050162
0.00519292
0.00538176
0.00557342
0.00575662
0.00592686
0.00608361
0.00624369
0.00641458
0.00659697
0.00679528
0.00699929
0.00720014
0.00740341
0.0076098
0.00782332
0.00803861
0.00826465
0.00850342
0.00874607
0.00899989
0.00925574
0.00951985
0.00980318
0.0101035
0.0103943
0.0106912
0.0110086
0.0113377
0.011674
0.0120082
0.0123548
0.0127029
0.0130587
0.0134273
0.0138125
0.0142041
0.0145985
0.0149994
0.015414
0.0158375
0.0162712
0.0167151
0.0171582
0.0176033
0.0180578
0.0184402
0.0188206
0.00920407
0.00736445
0.00327263
-0.00102509
-0.00347731
-0.00366039
-0.00269292
-0.00178022
-0.00127528
-0.00094161
-0.000640657
-0.00045742
-0.000362051
-0.000225695
-6.33943e-05
6.21613e-05
0.000190224
0.000330839
0.000432137
0.000525819
0.000670798
0.000837643
0.000981615
0.00110458
0.00123291
0.0013856
0.00155252
0.00170313
0.00182946
0.00196225
0.00210652
0.00223767
0.00236135
0.00249334
0.00262325
0.00274496
0.00285794
0.00296445
0.00307609
0.00319643
0.00331765
0.00344111
0.0035748
0.00371711
0.00385997
0.00399692
0.00412971
0.00427205
0.00441793
0.00455402
0.00469195
0.00484733
0.00501692
0.00519349
0.00538234
0.00557412
0.00575741
0.00592762
0.00608426
0.00624426
0.00641515
0.00659755
0.00679586
0.00699987
0.00720071
0.00740396
0.00761032
0.00782384
0.00803914
0.00826517
0.0085039
0.00874649
0.0090003
0.00925617
0.00952027
0.00980354
0.0101038
0.0103946
0.0106916
0.0110089
0.011338
0.0116743
0.0120085
0.012355
0.0127031
0.0130589
0.0134275
0.0138127
0.0142043
0.0145987
0.0149996
0.0154141
0.0158376
0.0162713
0.0167152
0.0171583
0.0176034
0.018058
0.0184406
0.0188209
0.00870367
0.00707356
0.0034205
-0.000646245
-0.00317075
-0.00352364
-0.00264004
-0.0017396
-0.00123057
-0.000900842
-0.000610361
-0.000434923
-0.000342172
-0.000207079
-4.63736e-05
7.75434e-05
0.000203369
0.000342188
0.00044383
0.000538349
0.000682111
0.000846489
0.000989102
0.00111219
0.00124056
0.00139211
0.00155744
0.0017073
0.0018336
0.00196599
0.00210946
0.00224021
0.00236384
0.00249558
0.00262505
0.00274651
0.00285968
0.00296655
0.00307832
0.00319852
0.00331962
0.00344297
0.00357639
0.00371836
0.00386114
0.00399832
0.0041313
0.00427354
0.00441925
0.00455537
0.00469337
0.00484857
0.00501782
0.0051941
0.00538288
0.00557478
0.00575822
0.00592848
0.00608505
0.00624498
0.00641586
0.00659826
0.00679656
0.00700057
0.0072014
0.00740465
0.00761098
0.0078245
0.00803983
0.00826585
0.00850452
0.00874706
0.00900084
0.00925673
0.00952083
0.00980401
0.0101042
0.0103951
0.010692
0.0110093
0.0113383
0.0116746
0.0120088
0.0123553
0.0127034
0.0130591
0.0134277
0.0138129
0.0142045
0.0145989
0.0149997
0.0154142
0.0158377
0.0162714
0.0167153
0.0171584
0.0176035
0.0180582
0.018441
0.0188212
0.00824045
0.00677446
0.00354017
-0.000276169
-0.00285144
-0.00337429
-0.00258511
-0.00170067
-0.00118549
-0.000857659
-0.000577606
-0.000410768
-0.000321205
-0.000187573
-2.85197e-05
9.37189e-05
0.000217219
0.000354116
0.000456054
0.000551463
0.00069403
0.000855881
0.000997071
0.00112027
0.00124868
0.00139904
0.00156269
0.00171174
0.00183799
0.00196995
0.00211259
0.00224293
0.00236651
0.00249798
0.00262692
0.00274806
0.00286141
0.00296874
0.00308074
0.00320089
0.00332191
0.00344516
0.00357824
0.00371976
0.00386236
0.00399976
0.00413297
0.00427511
0.00442066
0.00455691
0.00469508
0.00485016
0.005019
0.00519486
0.0053834
0.00557533