/*--------------------------------*- C++ -*----------------------------------*\
| =========                 |                                                 |
| \\      /  F ield         | OpenFOAM: The Open Source CFD Toolbox           |
|  \\    /   O peration     | Version:  2106                                  |
|   \\  /    A nd           | Website:  www.openfoam.com                      |
|    \\/     M anipulation  |                                                 |
\*---------------------------------------------------------------------------*/
FoamFile
{
    version     2.0;
    format      ascii;
    arch        "LSB;label=32;scalar=64";
    class       volVectorField;
    location    "0.315";
    object      U;
}
// * * * * * * * * * * * * * * * * * * * * * * * * * * * * * * * * * * * * * //

dimensions      [0 1 -1 0 0 0 0];

internalField   nonuniform List<vector> 
9600
(
(0.881503 0.00281818 0)
(1.10898 -0.00657384 0)
(0.872937 0.00753426 0)
(1.146 -0.00514993 0)
(0.773161 -0.000782479 0)
(1.20708 0.00627933 0)
(0.829145 -0.00505283 0)
(1.1102 0.00499568 0)
(0.872755 -0.000827235 0)
(1.10761 0.00825166 0)
(0.87993 -0.00738548 0)
(1.1323 -0.000939486 0)
(0.88892 -0.00390903 0)
(1.12884 0.00451948 0)
(0.877453 0.0016375 0)
(1.11703 0.00638354 0)
(0.870104 0.00285668 0)
(1.11578 0.00475476 0)
(0.860812 0.001579 0)
(1.11858 0.00127871 0)
(0.889444 0.00281266 0)
(1.09828 -0.00634731 0)
(0.879663 0.00708519 0)
(1.13131 -0.00403652 0)
(0.787225 -0.00183497 0)
(1.18852 0.00594833 0)
(0.853051 -0.00420027 0)
(1.09543 0.00480916 0)
(0.894531 -0.00096599 0)
(1.08971 0.00831919 0)
(0.912233 -0.00794612 0)
(1.10742 -0.000956641 0)
(0.926454 -0.00398687 0)
(1.09564 0.00480247 0)
(0.929059 0.00184269 0)
(1.06641 0.00655788 0)
(0.942889 0.00306299 0)
(1.03837 0.00459379 0)
(0.964099 0.00223138 0)
(1.00209 0.00109943 0)
(0.90478 0.00283995 0)
(1.08072 -0.00614022 0)
(0.89397 0.00666898 0)
(1.10807 -0.00313162 0)
(0.817764 -0.00252597 0)
(1.15256 0.00554703 0)
(0.892487 -0.00340304 0)
(1.06663 0.00443806 0)
(0.926466 -0.00102138 0)
(1.05951 0.00814072 0)
(0.951098 -0.00823825 0)
(1.06794 -0.00113164 0)
(0.969679 -0.00375216 0)
(1.05224 0.0047896 0)
(0.976543 0.0025195 0)
(1.02194 0.00620085 0)
(0.984341 0.00388679 0)
(1.00116 0.00389066 0)
(0.98928 0.00352991 0)
(0.985296 0.00143751 0)
(0.925023 0.00289141 0)
(1.05986 -0.00595877 0)
(0.9141 0.00636661 0)
(1.08085 -0.00245645 0)
(0.859544 -0.00300522 0)
(1.10744 0.00496491 0)
(0.93494 -0.00267182 0)
(1.03433 0.00415431 0)
(0.954758 -0.000981492 0)
(1.02989 0.00778072 0)
(0.978978 -0.00827727 0)
(1.03318 -0.00146711 0)
(0.99375 -0.00344596 0)
(1.02195 0.00464627 0)
(0.995233 0.00307396 0)
(1.00207 0.00606725 0)
(0.99223 0.00434008 0)
(0.992151 0.00380508 0)
(0.98827 0.00407529 0)
(0.984893 0.0020539 0)
(0.946619 0.00295461 0)
(1.03956 -0.00579522 0)
(0.936498 0.00613814 0)
(1.05449 -0.00198753 0)
(0.902918 -0.00326244 0)
(1.0644 0.00430118 0)
(0.968663 -0.00201181 0)
(1.00973 0.00403213 0)
(0.973261 -0.000940888 0)
(1.00998 0.00738457 0)
(0.993128 -0.00822824 0)
(1.01213 -0.00177353 0)
(1.00017 -0.00319575 0)
(1.00653 0.0045527 0)
(0.997327 0.00349558 0)
(0.995031 0.00607424 0)
(0.991224 0.00470016 0)
(0.98933 0.00377071 0)
(0.98682 0.00452285 0)
(0.983967 0.00255708 0)
(0.966083 0.00301739 0)
(1.02302 -0.00565659 0)
(0.957264 0.00597326 0)
(1.03312 -0.00170899 0)
(0.939501 -0.00333479 0)
(1.03192 0.00368982 0)
(0.989001 -0.00150279 0)
(0.99698 0.00404103 0)
(0.983589 -0.000928512 0)
(1.00057 0.00701581 0)
(0.998797 -0.00814677 0)
(1.0023 -0.00197242 0)
(0.999164 -0.00297949 0)
(0.999462 0.00450345 0)
(0.99559 0.00383503 0)
(0.992747 0.0060783 0)
(0.990799 0.00502571 0)
(0.988957 0.0037274 0)
(0.987209 0.00488091 0)
(0.984799 0.00310532 0)
(0.981107 0.00306702 0)
(1.01172 -0.00554335 0)
(0.973678 0.00586177 0)
(1.01864 -0.00157621 0)
(0.965542 -0.0032859 0)
(1.01224 0.00321289 0)
(0.99807 -0.00116866 0)
(0.993343 0.00411507 0)
(0.989583 -0.000920663 0)
(0.99799 0.0066845 0)
(1.00079 -0.00802271 0)
(0.998345 -0.00208635 0)
(0.996967 -0.00276402 0)
(0.996289 0.00443121 0)
(0.994485 0.00410007 0)
(0.992779 0.00602735 0)
(0.991966 0.00529263 0)
(0.990556 0.00370821 0)
(0.988895 0.00514164 0)
(0.987056 0.00368938 0)
(0.991071 0.00309568 0)
(1.00527 -0.00545006 0)
(0.984888 0.00578355 0)
(1.01045 -0.00153124 0)
(0.981602 -0.00317407 0)
(1.00262 0.00288341 0)
(1.00059 -0.000973753 0)
(0.993997 0.00418545 0)
(0.993591 -0.000900487 0)
(0.998519 0.00639165 0)
(1.00145 -0.00784131 0)
(0.996739 -0.00215483 0)
(0.995356 -0.00254161 0)
(0.994937 0.00430601 0)
(0.994329 0.00429911 0)
(0.993817 0.00591117 0)
(0.993854 0.00550226 0)
(0.992882 0.00373051 0)
(0.991136 0.00532867 0)
(0.989562 0.00429044 0)
(0.996747 0.00310292 0)
(1.00221 -0.00537054 0)
(0.991572 0.00572084 0)
(1.00658 -0.00152943 0)
(0.990351 -0.00303729 0)
(0.998849 0.00266959 0)
(1.00048 -0.000864883 0)
(0.995581 0.00421311 0)
(0.996342 -0.000868703 0)
(0.99984 0.00613217 0)
(1.00168 -0.00759957 0)
(0.99598 -0.0022039 0)
(0.994364 -0.00231254 0)
(0.994349 0.0041322 0)
(0.994517 0.00444725 0)
(0.994861 0.00574887 0)
(0.995528 0.00565602 0)
(0.994883 0.00380454 0)
(0.993144 0.00545753 0)
(0.991649 0.00489447 0)
(0.999527 0.00309356 0)
(1.00101 -0.00529919 0)
(0.995091 0.00566283 0)
(1.00504 -0.00154556 0)
(0.994632 -0.00289199 0)
(0.997731 0.00252922 0)
(0.999842 -0.000799669 0)
(0.996757 0.00419417 0)
(0.998055 -0.000830464 0)
(1.00094 0.00589308 0)
(1.00179 -0.00730475 0)
(0.995601 -0.0022414 0)
(0.993772 -0.00207355 0)
(0.994002 0.00392509 0)
(0.994615 0.00455719 0)
(0.995464 0.00556835 0)
(0.996549 0.00575209 0)
(0.996154 0.00393288 0)
(0.994535 0.00553458 0)
(0.993128 0.00547845 0)
(1.00071 0.00307373 0)
(1.00061 -0.00523127 0)
(0.996755 0.00560383 0)
(1.00448 -0.00156732 0)
(0.996543 -0.00274349 0)
(0.997565 0.00242796 0)
(0.999361 -0.000752526 0)
(0.997355 0.00414238 0)
(0.998994 -0.000788787 0)
(1.00158 0.00566141 0)
(1.00185 -0.00696992 0)
(0.995458 -0.00226951 0)
(0.993449 -0.00182397 0)
(0.993738 0.00370376 0)
(0.994535 0.00463635 0)
(0.995649 0.00539179 0)
(0.99697 0.00578985 0)
(0.996778 0.00410606 0)
(0.995338 0.00556938 0)
(0.994084 0.00601445 0)
(1.00115 0.00304815 0)
(1.00047 -0.00516333 0)
(0.99749 0.00554129 0)
(1.00422 -0.00158886 0)
(0.997333 -0.00259463 0)
(0.997668 0.00234494 0)
(0.999117 -0.000710723 0)
(0.997577 0.00407213 0)
(0.999457 -0.00074545 0)
(1.00186 0.00542843 0)
(1.00185 -0.00660812 0)
(0.995455 -0.00228945 0)
(0.993323 -0.00156546 0)
(0.993571 0.00348356 0)
(0.994384 0.00469035 0)
(0.995624 0.00523241 0)
(0.997055 0.00577463 0)
(0.997018 0.00430987 0)
(0.995763 0.00558067 0)
(0.99469 0.00647754 0)
(1.00129 0.00301946 0)
(1.00041 -0.00509329 0)
(0.997822 0.00547436 0)
(1.00402 -0.00160729 0)
(0.997639 -0.00244781 0)
(0.997819 0.00227029 0)
(0.999034 -0.000669605 0)
(0.997631 0.00399279 0)
(0.999675 -0.000701096 0)
(1.00192 0.00519049 0)
(1.00179 -0.00622877 0)
(0.99552 -0.0023039 0)
(0.993333 -0.00129872 0)
(0.993535 0.00327373 0)
(0.99428 0.00471986 0)
(0.995576 0.0050989 0)
(0.997036 0.00571879 0)
(0.997096 0.00452995 0)
(0.996 0.0055919 0)
(0.995096 0.00685233 0)
(1.00133 0.0029888 0)
(1.00037 -0.0050202 0)
(0.997998 0.00540279 0)
(1.00383 -0.00162087 0)
(0.997749 -0.00230458 0)
(0.997952 0.00219993 0)
(0.999046 -0.000628668 0)
(0.997643 0.0039102 0)
(0.999787 -0.00065624 0)
(1.00186 0.00494872 0)
(1.00165 -0.00583838 0)
(0.995606 -0.00231501 0)
(0.993427 -0.00103092 0)
(0.993625 0.00307942 0)
(0.994278 0.00472198 0)
(0.99559 0.00499496 0)
(0.997033 0.00563812 0)
(0.997138 0.00474869 0)
(0.996165 0.00562128 0)
(0.9954 0.00713508 0)
(1.00131 0.00295653 0)
(1.00036 -0.00494359 0)
(0.99811 0.0053263 0)
(1.00365 -0.00162828 0)
(0.997785 -0.00216588 0)
(0.99805 0.00213263 0)
(0.999107 -0.000589735 0)
(0.997664 0.00382807 0)
(0.999857 -0.000609876 0)
(1.00173 0.00470413 0)
(1.00147 -0.00544139 0)
(0.995699 -0.00232062 0)
(0.993567 -0.000771872 0)
(0.993805 0.0029035 0)
(0.994368 0.00469755 0)
(0.995673 0.00491904 0)
(0.997076 0.00554913 0)
(0.997189 0.00495115 0)
(0.996312 0.00567826 0)
(0.995656 0.00733518 0)
(1.00128 0.00292266 0)
(1.00036 -0.00486318 0)
(0.998188 0.00524448 0)
(1.00351 -0.00162857 0)
(0.9978 -0.00203219 0)
(0.998114 0.00206874 0)
(0.99919 -0.00055541 0)
(0.997701 0.00374911 0)
(0.999912 -0.00056259 0)
(1.00159 0.00446017 0)
(1.00126 -0.0050428 0)
(0.995799 -0.00231846 0)
(0.99373 -0.000527039 0)
(0.994031 0.00274784 0)
(0.994512 0.00464975 0)
(0.995794 0.00486546 0)
(0.997154 0.00546367 0)
(0.997254 0.00513173 0)
(0.996458 0.00576221 0)
(0.995897 0.00746775 0)
(1.00124 0.00288707 0)
(1.00038 -0.00477869 0)
(0.998244 0.0051569 0)
(1.00338 -0.0016211 0)
(0.997819 -0.00190416 0)
(0.998153 0.00200959 0)
(0.999274 -0.00052816 0)
(0.997743 0.0036758 0)
(0.999958 -0.000516721 0)
(1.00144 0.00422001 0)
(1.00105 -0.00464577 0)
(0.995909 -0.00230906 0)
(0.993903 -0.000296521 0)
(0.994265 0.00261022 0)
(0.994673 0.00458434 0)
(0.99592 0.00482522 0)
(0.997244 0.00538749 0)
(0.997327 0.00529364 0)
(0.996607 0.0058656 0)
(0.996139 0.00754375 0)
(1.00119 0.00284959 0)
(1.00042 -0.00468985 0)
(0.998286 0.00506307 0)
(1.00327 -0.00160518 0)
(0.997853 -0.00178292 0)
(0.998178 0.00195747 0)
(0.99935 -0.000510262 0)
(0.997776 0.00360905 0)
(0.999997 -0.000472557 0)
(1.0013 0.00398348 0)
(1.00084 -0.00425165 0)
(0.996034 -0.00229252 0)
(0.994081 -8.25179e-05 0)
(0.994489 0.002487 0)
(0.994827 0.00451083 0)
(0.996029 0.00479103 0)
(0.99733 0.00532198 0)
(0.9974 0.00544201 0)
(0.996754 0.00597967 0)
(0.996385 0.00757073 0)
(1.00115 0.00281001 0)
(1.00045 -0.0045963 0)
(0.998324 0.0049626 0)
(1.00316 -0.00158051 0)
(0.997904 -0.00166909 0)
(0.998198 0.00191393 0)
(0.999415 -0.00050276 0)
(0.997797 0.0035511 0)
(1.00003 -0.000431861 0)
(1.00117 0.00375239 0)
(1.00065 -0.00386082 0)
(0.996173 -0.00227032 0)
(0.994262 0.000114693 0)
(0.994696 0.00237496 0)
(0.994965 0.00443329 0)
(0.996114 0.00476442 0)
(0.997405 0.00526097 0)
(0.997471 0.0055782 0)
(0.996895 0.00610125 0)
(0.996632 0.00756357 0)
(1.0011 0.00276814 0)
(1.00049 -0.00449788 0)
(0.998361 0.00485523 0)
(1.00304 -0.00154628 0)
(0.997967 -0.00156475 0)
(0.998219 0.00188179 0)
(0.999474 -0.000507125 0)
(0.997808 0.00350331 0)
(1.00005 -0.000394117 0)
(1.00105 0.00352625 0)
(1.00047 -0.00347523 0)
(0.996322 -0.00223901 0)
(0.994449 0.000306064 0)
(0.994889 0.00227193 0)
(0.995093 0.00434979 0)
(0.99618 0.00475249 0)
(0.997474 0.00519617 0)
(0.997541 0.00569646 0)
(0.997028 0.006229 0)
(0.996878 0.00753788 0)
(1.00106 0.00272389 0)
(1.00053 -0.00439444 0)
(0.998401 0.00474042 0)
(1.00293 -0.00150122 0)
(0.998038 -0.0014716 0)
(0.99824 0.001863 0)
(0.99953 -0.000523681 0)
(0.997813 0.00346333 0)
(1.00007 -0.000357048 0)
(1.00094 0.00330114 0)
(1.00029 -0.00309162 0)
(0.996478 -0.00220281 0)
(0.994639 0.000495756 0)
(0.995073 0.00217796 0)
(0.99522 0.00425733 0)
(0.996235 0.00475961 0)
(0.99754 0.0051266 0)
(0.997618 0.00578852 0)
(0.997154 0.00636055 0)
(0.997116 0.00749914 0)
(1.00102 0.00267719 0)
(1.00057 -0.00428584 0)
(0.998444 0.0046178 0)
(1.00281 -0.00144498 0)
(0.998116 -0.0013895 0)
(0.998262 0.00185807 0)
(0.999586 -0.000553046 0)
(0.997818 0.00343134 0)
(1.00008 -0.000322124 0)
(1.00085 0.00307784 0)
(1.00012 -0.0027103 0)
(0.996635 -0.00216681 0)
(0.994834 0.000682337 0)
(0.995251 0.00209878 0)
(0.995353 0.00415265 0)
(0.996285 0.00478721 0)
(0.997608 0.00505876 0)
(0.997707 0.00584224 0)
(0.997275 0.00649778 0)
(0.997341 0.00745987 0)
(1.00098 0.0026278 0)
(1.0006 -0.00417164 0)
(0.998488 0.00448647 0)
(1.00269 -0.00137572 0)
(0.998197 -0.00132212 0)
(0.998282 0.00187052 0)
(0.999642 -0.000595103 0)
(0.997825 0.00340445 0)
(1.00008 -0.000283906 0)
(1.00077 0.00285384 0)
(0.999944 -0.00233054 0)
(0.996791 -0.00213181 0)
(0.995034 0.000859639 0)
(0.995422 0.00204551 0)
(0.995498 0.00403067 0)
(0.996338 0.00483467 0)
(0.997677 0.00501047 0)
(0.997812 0.00584923 0)
(0.997396 0.00663266 0)
(0.997548 0.00744303 0)
(1.00094 0.0025756 0)
(1.00064 -0.00405151 0)
(0.998534 0.00434569 0)
(1.00257 -0.00129266 0)
(0.998282 -0.00126941 0)
(0.9983 0.0018968 0)
(0.999699 -0.000645577 0)
(0.997836 0.00337975 0)
(1.00008 -0.000239033 0)
(1.0007 0.00262423 0)
(0.999769 -0.0019408 0)
(0.996945 -0.00209808 0)
(0.995239 0.00101923 0)
(0.995588 0.002028 0)
(0.995656 0.00388612 0)
(0.996397 0.00489151 0)
(0.997744 0.00499478 0)
(0.997934 0.00580928 0)
(0.997523 0.0067375 0)
(0.997733 0.00746145 0)
(1.00089 0.0025206 0)
(1.00067 -0.00392537 0)
(0.998581 0.00419484 0)
(1.00245 -0.00119486 0)
(0.998371 -0.00123163 0)
(0.998316 0.00193647 0)
(0.999757 -0.000704304 0)
(0.997851 0.00335384 0)
(1.00008 -0.000183763 0)
(1.00064 0.0023869 0)
(0.999596 -0.00154164 0)
(0.997093 -0.00205924 0)
(0.995452 0.00115412 0)
(0.995746 0.00205423 0)
(0.995828 0.0037208 0)
(0.99647 0.00493871 0)
(0.997807 0.00501518 0)
(0.998068 0.005732 0)
(0.997663 0.00678364 0)
(0.997898 0.00751027 0)
(1.00085 0.00246226 0)
(1.00071 -0.00379211 0)
(0.998629 0.00403246 0)
(1.00233 -0.00108042 0)
(0.998463 -0.00121014 0)
(0.998332 0.00198989 0)
(0.999816 -0.000768305 0)
(0.997871 0.00332223 0)
(1.00006 -0.000109022 0)
(1.0006 0.00213465 0)
(0.999425 -0.00114492 0)
(0.997235 -0.00200335 0)
(0.995674 0.00125828 0)
(0.995895 0.00212985 0)
(0.996009 0.00354762 0)
(0.996562 0.00496113 0)
(0.997862 0.00507427 0)
(0.998209 0.00564373 0)
(0.997823 0.00676307 0)
(0.998049 0.00756743 0)
(1.00081 0.00240082 0)
(1.00074 -0.00365175 0)
(0.998679 0.00385837 0)
(1.00221 -0.000950663 0)
(0.998559 -0.0011997 0)
(0.998346 0.00205211 0)
(0.999874 -0.000832011 0)
(0.997897 0.00327899 0)
(1.00004 -9.20656e-06 0)
(1.00057 0.00186486 0)
(0.999261 -0.000753033 0)
(0.997368 -0.00192504 0)
(0.995907 0.00131763 0)
(0.996036 0.00225338 0)
(0.996196 0.00338372 0)
(0.996676 0.00494772 0)
(0.997913 0.00516525 0)
(0.998346 0.00556872 0)
(0.998002 0.00668055 0)
(0.998196 0.00760087 0)
(1.00077 0.00233569 0)
(1.00077 -0.00350334 0)
(0.998733 0.00367183 0)
(1.00209 -0.000805236 0)
(0.998657 -0.00120313 0)
(0.998359 0.00212322 0)
(0.999931 -0.000889638 0)
(0.99793 0.00321393 0)
(1 0.000117169 0)
(1.00055 0.00158067 0)
(0.999106 -0.000374058 0)
(0.997489 -0.00181349 0)
(0.996154 0.00132532 0)
(0.996172 0.00241582 0)
(0.996382 0.00324816 0)
(0.996817 0.0048882 0)
(0.997965 0.005273 0)
(0.998473 0.00552453 0)
(0.998199 0.00654599 0)
(0.998352 0.00757901 0)
(1.00072 0.00226678 0)
(1.00081 -0.00334602 0)
(0.99879 0.00347188 0)
(1.00196 -0.000645758 0)
(0.998757 -0.00121808 0)
(0.998372 0.00219705 0)
(0.999988 -0.0009338 0)
(0.997972 0.00312049 0)
(0.999952 0.000272589 0)
(1.00055 0.00129527 0)
(0.998964 -2.36062e-05 0)
(0.997594 -0.00165411 0)
(0.996415 0.00128219 0)
(0.996307 0.0025955 0)
(0.996561 0.00315822 0)
(0.996984 0.00477982 0)
(0.998024 0.0053749 0)
(0.998582 0.00552414 0)
(0.998402 0.00638253 0)
(0.99853 0.00748071 0)
(1.00068 0.00219459 0)
(1.00084 -0.00318066 0)
(0.998851 0.0032602 0)
(1.00183 -0.000476179 0)
(0.99886 -0.00123708 0)
(0.998385 0.00226576 0)
(1.00004 -0.000957472 0)
(0.998025 0.002994 0)
(0.999892 0.000456598 0)
(1.00055 0.00101959 0)
(0.998839 0.000291327 0)
(0.997681 -0.00143936 0)
(0.996689 0.00119897 0)
(0.996447 0.00277138 0)
(0.996727 0.00312663 0)
(0.997174 0.00462949 0)
(0.998099 0.00544377 0)
(0.998673 0.00556664 0)
(0.998601 0.00622515 0)
(0.998732 0.0073068 0)
(1.00063 0.00211752 0)
(1.00086 -0.00300485 0)
(0.998916 0.00303671 0)
(1.00171 -0.000297987 0)
(0.998964 -0.00125717 0)
(0.998399 0.00232648 0)
(1.00009 -0.000954812 0)
(0.998089 0.0028346 0)
(0.99982 0.000662146 0)
(1.00057 0.000755898 0)
(0.998735 0.000566135 0)
(0.997749 -0.00116897 0)
(0.996972 0.00109156 0)
(0.996598 0.0029236 0)
(0.996875 0.00315987 0)
(0.997379 0.00445538 0)
(0.9982 0.00545963 0)
(0.998749 0.00563567 0)
(0.998782 0.00610488 0)
(0.998955 0.00707965 0)
(1.00059 0.00203727 0)
(1.00089 -0.00282038 0)
(0.998986 0.00280264 0)
(1.00159 -0.000115098 0)
(0.999069 -0.00127519 0)
(0.998415 0.00237115 0)
(1.00013 -0.000919992 0)
(0.998167 0.00264263 0)
(0.999738 0.00088172 0)
(1.00059 0.000518542 0)
(0.998657 0.00078505 0)
(0.997795 -0.000852121 0)
(0.997259 0.000976562 0)
(0.996768 0.00303303 0)
(0.997003 0.00325371 0)
(0.997588 0.00428333 0)
(0.998331 0.00541804 0)
(0.998819 0.00570724 0)
(0.998935 0.00603137 0)
(0.999183 0.0068349 0)
(1.00055 0.00195315 0)
(1.00091 -0.00262717 0)
(0.999059 0.00256198 0)
(1.00146 6.33145e-05 0)
(0.999174 -0.00128637 0)
(0.998433 0.0023907 0)
(1.00016 -0.000847864 0)
(0.998258 0.0024256 0)
(0.999649 0.00110691 0)
(1.0006 0.000322268 0)
(0.998607 0.000941619 0)
(0.997823 -0.000496592 0)
(0.997543 0.000878188 0)
(0.996962 0.00309374 0)
(0.997115 0.00339559 0)
(0.997791 0.00413317 0)
(0.998492 0.00531909 0)
(0.998895 0.00576079 0)
(0.99906 0.00599723 0)
(0.999399 0.00660822 0)
(1.00051 0.00186503 0)
(1.00092 -0.0024247 0)
(0.999135 0.00231682 0)
(1.00134 0.000238581 0)
(0.999278 -0.00128189 0)
(0.998455 0.00238481 0)
(1.00019 -0.000742031 0)
(0.998361 0.00219283 0)
(0.999556 0.00132202 0)
(1.00062 0.000172789 0)
(0.998588 0.00104349 0)
(0.997836 -0.000117225 0)
(0.997817 0.000807339 0)
(0.997185 0.00309782 0)
(0.997214 0.00356917 0)
(0.997977 0.00402426 0)
(0.998678 0.00516433 0)
(0.998986 0.00578021 0)
(0.999158 0.00599168 0)
(0.999586 0.00642806 0)
(1.00046 0.00177382 0)
(1.00093 -0.00221519 0)
(0.999213 0.00207097 0)
(1.00122 0.000405368 0)
(0.999379 -0.00125466 0)
(0.998482 0.00235438 0)
(1.0002 -0.000610429 0)
(0.998476 0.00195676 0)
(0.999462 0.00151616 0)
(1.00062 7.47598e-05 0)
(0.998601 0.00109352 0)
(0.997836 0.000273804 0)
(0.998073 0.000779211 0)
(0.997438 0.00303809 0)
(0.99731 0.00375022 0)
(0.998134 0.00397719 0)
(0.998883 0.00496906 0)
(0.999102 0.00574844 0)
(0.999241 0.00599257 0)
(0.999734 0.00630225 0)
(1.00042 0.00167939 0)
(1.00093 -0.0020009 0)
(0.999293 0.00182898 0)
(1.00111 0.000552171 0)
(0.999476 -0.00120334 0)
(0.998516 0.00230018 0)
(1.0002 -0.000459096 0)
(0.9986 0.0017305 0)
(0.99937 0.00168892 0)
(1.00062 2.76203e-05 0)
(0.998646 0.00110065 0)
(0.997832 0.00066236 0)
(0.998302 0.000810022 0)
(0.99772 0.00292067 0)
(0.997416 0.00390474 0)
(0.998257 0.00399614 0)
(0.999093 0.00476533 0)
(0.999247 0.00566214 0)
(0.999321 0.00597836 0)
(0.999845 0.00621148 0)
(1.00039 0.00158351 0)
(1.00093 -0.00178555 0)
(0.999375 0.00159499 0)
(1.001 0.000675701 0)
(0.999568 -0.00113025 0)
(0.998555 0.00222684 0)
(1.00019 -0.000294953 0)
(0.998731 0.00151462 0)
(0.999284 0.00183604 0)
(1.0006 3.12206e-05 0)
(0.998721 0.00107085 0)
(0.99783 0.00103089 0)
(0.998495 0.000902534 0)
(0.998023 0.00276831 0)
(0.997544 0.0040104 0)
(0.998348 0.00406794 0)
(0.999294 0.00457855 0)
(0.999422 0.00552482 0)
(0.999408 0.00594332 0)
(0.999931 0.00611848 0)
(1.00035 0.00148559 0)
(1.00092 -0.00157151 0)
(0.999456 0.00137517 0)
(1.00089 0.000772119 0)
(0.999654 -0.00103925 0)
(0.9986 0.00214319 0)
(1.00017 -0.000124573 0)
(0.998867 0.00131131 0)
(0.999206 0.00195158 0)
(1.00056 8.52292e-05 0)
(0.998824 0.00100679 0)
(0.997838 0.00136295 0)
(0.99865 0.00105336 0)
(0.998337 0.00260392 0)
(0.997703 0.00405612 0)
(0.998412 0.00417681 0)
(0.999473 0.00442708 0)
(0.999622 0.00534025 0)
(0.999505 0.00589496 0)
(1 0.00601436 0)
(1.00031 0.00138842 0)
(1.0009 -0.00136338 0)
(0.999536 0.00117369 0)
(1.00079 0.00084291 0)
(0.999733 -0.000931125 0)
(0.99865 0.00205466 0)
(1.00014 4.60383e-05 0)
(0.999004 0.00112658 0)
(0.999142 0.00203933 0)
(1.00051 0.000187881 0)
(0.998949 0.000921035 0)
(0.997865 0.00164561 0)
(0.998763 0.00126381 0)
(0.998649 0.00245163 0)
(0.9979 0.00403051 0)
(0.998459 0.00429727 0)
(0.999617 0.00432461 0)
(0.999843 0.00510857 0)
(0.99962 0.00581922 0)
(1.00005 0.0059284 0)
(1.00028 0.00129078 0)
(1.00088 -0.00116157 0)
(0.999614 0.000996324 0)
(1.0007 0.000888749 0)
(0.999807 -0.00081767 0)
(0.998704 0.00196491 0)
(1.00011 0.0002195 0)
(0.999143 0.000955079 0)
(0.999092 0.0021025 0)
(1.00044 0.000334125 0)
(0.99909 0.000832833 0)
(0.997921 0.00186452 0)
(0.998841 0.00152475 0)
(0.998943 0.00234023 0)
(0.998135 0.00393724 0)
(0.998503 0.00440046 0)
(0.999715 0.00428306 0)
(1.00007 0.00485021 0)
(0.999769 0.00567482 0)
(1.00009 0.00587675 0)
(1.00025 0.00119521 0)
(1.00085 -0.000971043 0)
(0.999688 0.00084579 0)
(1.00062 0.000912627 0)
(0.999875 -0.000705255 0)
(0.998764 0.00187658 0)
(1.00006 0.00039714 0)
(0.999279 0.000799078 0)
(0.999063 0.00212932 0)
(1.00035 0.000519688 0)
(0.99924 0.000759915 0)
(0.99801 0.00200424 0)
(0.998891 0.00180174 0)
(0.999204 0.00228452 0)
(0.998401 0.0037943 0)
(0.998562 0.00446033 0)
(0.999765 0.00429811 0)
(1.00028 0.0046163 0)
(0.999963 0.00544421 0)
(1.00012 0.00582177 0)
(1.00022 0.00110228 0)
(1.00082 -0.00079333 0)
(0.999758 0.000722405 0)
(1.00054 0.000918914 0)
(0.999938 -0.000599495 0)
(0.99883 0.00178563 0)
(1 0.000574483 0)
(0.999409 0.000675356 0)
(0.999057 0.00211361 0)
(1.00025 0.000735934 0)
(0.999387 0.000716381 0)
(0.998136 0.00206901 0)
(0.998926 0.0020613 0)
(0.999426 0.00229423 0)
(0.998687 0.0036352 0)
(0.998648 0.00446441 0)
(0.999779 0.0043364 0)
(1.00045 0.00444132 0)
(1.00019 0.00515866 0)
(1.00019 0.00569592 0)
(1.00019 0.00101178 0)
(1.00078 -0.000628045 0)
(0.999823 0.000621235 0)
(1.00047 0.000916499 0)
(0.999997 -0.000503541 0)
(0.998904 0.00168672 0)
(0.999935 0.000755588 0)
(0.999529 0.000584903 0)
(0.999077 0.00205778 0)
(1.00015 0.000970802 0)
(0.999522 0.000714118 0)
(0.998295 0.00207479 0)
(0.998962 0.00228632 0)
(0.999608 0.00235585 0)
(0.998977 0.00348603 0)
(0.998764 0.00441851 0)
(0.99977 0.00436922 0)
(1.00057 0.00432392 0)
(1.00042 0.00487871 0)
(1.00032 0.00547362 0)
(1.00016 0.000924825 0)
(1.00074 -0.000476158 0)
(0.999883 0.000539164 0)
(1.00041 0.000908642 0)
(1.00005 -0.000410365 0)
(0.998986 0.00157743 0)
(0.999866 0.000937335 0)
(0.999633 0.000538101 0)
(0.999123 0.00195816 0)
(1.00004 0.00120109 0)
(0.999635 0.000768186 0)
(0.99848 0.00203901 0)
(0.999008 0.00246137 0)
(0.999752 0.00244653 0)
(0.999259 0.0033568 0)
(0.998909 0.00433617 0)
(0.999754 0.00438673 0)
(1.00065 0.00423772 0)
(1.00063 0.0046437 0)
(1.00049 0.00519026 0)
(1.00014 0.000841933 0)
(1.0007 -0.000340457 0)
(0.999937 0.000475996 0)
(1.00035 0.000901419 0)
(1.0001 -0.000321957 0)
(0.999078 0.00145295 0)
(0.999798 0.00110738 0)
(0.999717 0.000544469 0)
(0.999192 0.00183478 0)
(0.999943 0.0013967 0)
(0.999725 0.000880939 0)
(0.998681 0.00199476 0)
(0.999072 0.00257442 0)
(0.999865 0.00254707 0)
(0.999527 0.00324707 0)
(0.999079 0.00422472 0)
(0.999737 0.00439155 0)
(1.00068 0.0041619 0)
(1.00081 0.00444605 0)
(1.00068 0.00491833 0)
(1.00011 0.000763413 0)
(1.00065 -0.00021773 0)
(0.999986 0.000423911 0)
(1.0003 0.000898515 0)
(1.00014 -0.000232959 0)
(0.999181 0.0013143 0)
(0.999736 0.00125301 0)
(0.999778 0.000602162 0)
(0.999278 0.00171032 0)
(0.999866 0.00155172 0)
(0.999793 0.00102551 0)
(0.998885 0.00195732 0)
(0.999155 0.00264339 0)
(0.999955 0.00264183 0)
(0.999772 0.00315828 0)
(0.999275 0.00408155 0)
(0.999726 0.00438587 0)
(1.00067 0.00411302 0)
(1.00095 0.00425407 0)
(1.00085 0.00469489 0)
(1.0001 0.000688334 0)
(1.00061 -0.000107146 0)
(1.00003 0.000384606 0)
(1.00025 0.000894739 0)
(1.00017 -0.000137877 0)
(0.999292 0.00117094 0)
(0.999688 0.0013625 0)
(0.999817 0.000709458 0)
(0.999374 0.00159432 0)
(0.999813 0.0016581 0)
(0.999842 0.00118416 0)
(0.999087 0.00192657 0)
(0.999259 0.00267722 0)
(1.00003 0.00273164 0)
(0.999989 0.0030952 0)
(0.999492 0.00391399 0)
(0.999738 0.00433882 0)
(1.00062 0.00410944 0)
(1.00106 0.00407144 0)
(1.00101 0.0044834 0)
(1.00008 0.000617737 0)
(1.00056 -9.60585e-06 0)
(1.00007 0.00035639 0)
(1.00021 0.000889997 0)
(1.0002 -3.53356e-05 0)
(0.99941 0.00103456 0)
(0.999659 0.00142551 0)
(0.999837 0.000845643 0)
(0.999468 0.00151679 0)
(0.999785 0.00170944 0)
(0.999879 0.00134023 0)
(0.999279 0.00192645 0)
(0.999383 0.00267297 0)
(1.00009 0.00281112 0)
(1.00017 0.00305722 0)
(0.999715 0.00374823 0)
(0.999789 0.00423199 0)
(1.00055 0.00411968 0)
(1.00112 0.00394393 0)
(1.00117 0.00424348 0)
(1.00006 0.000551007 0)
(1.00051 7.6914e-05 0)
(1.0001 0.000333384 0)
(1.00018 0.000880861 0)
(1.00021 7.98201e-05 0)
(0.999529 0.000914572 0)
(0.999653 0.00143654 0)
(0.999848 0.000988414 0)
(0.999554 0.00148437 0)
(0.999777 0.00174557 0)
(0.999915 0.00146279 0)
(0.999456 0.00194378 0)
(0.99952 0.00265516 0)
(1.00016 0.00285817 0)
(1.00032 0.00304142 0)
(0.99993 0.00359641 0)
(0.999877 0.00408702 0)
(1.00048 0.00409209 0)
(1.00111 0.00388986 0)
(1.00132 0.00400891 0)
(1.00005 0.000488806 0)
(1.00046 0.000150611 0)
(1.00013 0.00031785 0)
(1.00015 0.000864488 0)
(1.00021 0.000204417 0)
(0.999642 0.000816611 0)
(0.999671 0.00140462 0)
(0.999857 0.00112313 0)
(0.999634 0.0014874 0)
(0.999781 0.00177769 0)
(0.999947 0.00156797 0)
(0.999625 0.00194394 0)
(0.999665 0.00263489 0)
(1.00023 0.00288711 0)
(1.00045 0.00303352 0)
(1.00013 0.00346639 0)
(0.99999 0.0039234 0)
(1.00045 0.00400522 0)
(1.00107 0.00386194 0)
(1.00142 0.00383991 0)
(1.00004 0.000430687 0)
(1.00042 0.000214787 0)
(1.00016 0.000309831 0)
(1.00013 0.000840952 0)
(1.00021 0.000328911 0)
(0.999746 0.000748814 0)
(0.999711 0.00134551 0)
(0.999874 0.00122607 0)
(0.999705 0.00152518 0)
(0.999797 0.00180234 0)
(0.999974 0.00166615 0)
(0.999782 0.00194466 0)
(0.999825 0.00258034 0)
(1.0003 0.0029082 0)
(1.00055 0.00303093 0)
(1.0003 0.00335894 0)
(1.00011 0.00376384 0)
(1.00045 0.00387962 0)
(1.00102 0.00380216 0)
(1.00146 0.00375086 0)
(1.00003 0.000376919 0)
(1.00037 0.00026914 0)
(1.00018 0.000309746 0)
(1.00013 0.00081108 0)
(1.0002 0.000447149 0)
(0.999835 0.000714776 0)
(0.999766 0.00127109 0)
(0.999903 0.00128631 0)
(0.999773 0.00157116 0)
(0.999817 0.00184991 0)
(0.999998 0.00174452 0)
(0.999919 0.00195458 0)
(0.999993 0.00250794 0)
(1.0004 0.00288659 0)
(1.00064 0.00304656 0)
(1.00045 0.00327153 0)
(1.00023 0.0036126 0)
(1.00046 0.00374378 0)
(1.00099 0.00368797 0)
(1.00146 0.00368534 0)
(1.00002 0.000327742 0)
(1.00033 0.0003138 0)
(1.00019 0.000318457 0)
(1.00013 0.00077244 0)
(1.00019 0.000552047 0)
(0.999908 0.00071886 0)
(0.999828 0.00119504 0)
(0.999946 0.00130725 0)
(0.999846 0.00160273 0)
(0.999841 0.00190735 0)
(1.00001 0.00183074 0)
(1.00004 0.00195292 0)
(1.00016 0.00243853 0)
(1.00052 0.00282664 0)
(1.00072 0.00304348 0)
(1.00056 0.00322452 0)
(1.00034 0.00347175 0)
(1.00048 0.00361658 0)
(1.00098 0.00354999 0)
(1.00147 0.00357339 0)
(1.00002 0.00028427 0)
(1.00029 0.000347536 0)
(1.0002 0.000335725 0)
(1.00013 0.000728598 0)
(1.00018 0.000637625 0)
(0.999964 0.000750815 0)
(0.999891 0.00113219 0)
(1 0.00129535 0)
(0.999928 0.00161903 0)
(0.999877 0.00195286 0)
(1.00002 0.00193111 0)
(1.00014 0.00196533 0)
(1.00032 0.0023457 0)
(1.00065 0.00275144 0)
(1.00082 0.00300016 0)
(1.00066 0.00319567 0)
(1.00044 0.00336405 0)
(1.00051 0.00349471 0)
(1.00097 0.00343263 0)
(1.00151 0.00340288 0)
(1.00001 0.0002459 0)
(1.00025 0.000371235 0)
(1.0002 0.000361448 0)
(1.00015 0.000683982 0)
(1.00018 0.000699531 0)
(1.00001 0.000798084 0)
(0.999947 0.0010911 0)
(1.00006 0.0012655 0)
(1.00002 0.00160483 0)
(0.999927 0.00198576 0)
(1.00002 0.00202623 0)
(1.0002 0.0020077 0)
(1.00047 0.00225491 0)
(1.0008 0.00263525 0)
(1.00094 0.00293732 0)
(1.00076 0.00315254 0)
(1.00051 0.00329135 0)
(1.00053 0.00338001 0)
(1.00093 0.00334736 0)
(1.00155 0.0032295 0)
(1.00001 0.00021409 0)
(1.00021 0.00038305 0)
(1.00019 0.000393662 0)
(1.00016 0.000644382 0)
(1.00018 0.000736915 0)
(1.00004 0.000852503 0)
(0.999993 0.0010764 0)
(1.00013 0.00122912 0)
(1.00013 0.00155652 0)
(0.999997 0.00199203 0)
(1.00002 0.00211233 0)
(1.00023 0.00206361 0)
(1.00058 0.00219646 0)
(1.00096 0.0024914 0)
(1.00108 0.00282827 0)
(1.00086 0.00309966 0)
(1.00058 0.00323511 0)
(1.00055 0.00328396 0)
(1.00087 0.00327782 0)
(1.00155 0.00311338 0)
(1 0.000188335 0)
(1.00018 0.00038513 0)
(1.00018 0.000429546 0)
(1.00017 0.000613396 0)
(1.0002 0.000746761 0)
(1.00007 0.000902254 0)
(1.00003 0.00108885 0)
(1.00018 0.00120054 0)
(1.00024 0.0014925 0)
(1.00009 0.00195904 0)
(1.00003 0.00217955 0)
(1.00023 0.00213572 0)
(1.00065 0.00215844 0)
(1.0011 0.00236845 0)
(1.00125 0.0026685 0)
(1.00099 0.00300853 0)
(1.00063 0.00319334 0)
(1.00056 0.00320411 0)
(1.00081 0.00320615 0)
(1.00147 0.00305934 0)
(1 0.000168366 0)
(1.00016 0.000378068 0)
(1.00016 0.000464295 0)
(1.00017 0.000595992 0)
(1.00022 0.000736285 0)
(1.0001 0.000938097 0)
(1.00005 0.00111729 0)
(1.00022 0.00118645 0)
(1.00035 0.0014238 0)
(1.00021 0.00188722 0)
(1.00007 0.00220742 0)
(1.00021 0.00222113 0)
(1.00068 0.00214624 0)
(1.0012 0.00226171 0)
(1.00142 0.00250478 0)
(1.00116 0.00285194 0)
(1.0007 0.00314149 0)
(1.00056 0.00315628 0)
(1.00077 0.00312279 0)
(1.00135 0.00303898 0)
(0.999995 0.000153932 0)
(1.00014 0.000363973 0)
(1.00014 0.000494828 0)
(1.00017 0.000593433 0)
(1.00024 0.000714374 0)
(1.00014 0.000952112 0)
(1.00006 0.00115079 0)
(1.00025 0.0011931 0)
(1.00044 0.00135814 0)
(1.00035 0.00178934 0)
(1.00014 0.00218326 0)
(1.00018 0.00229332 0)
(1.00067 0.00217792 0)
(1.00127 0.00217006 0)
(1.00157 0.00235813 0)
(1.00137 0.00266184 0)
(1.00083 0.00302711 0)
(1.00055 0.0031383 0)
(1.00073 0.00304545 0)
(1.00123 0.00300551 0)
(0.999992 0.000143811 0)
(1.00012 0.000345911 0)
(1.00013 0.00051697 0)
(1.00017 0.000605028 0)
(1.00027 0.000690588 0)
(1.00018 0.000941018 0)
(1.00008 0.00117905 0)
(1.00025 0.00122285 0)
(1.00052 0.00130614 0)
(1.00049 0.00167984 0)
(1.00024 0.00211346 0)
(1.00018 0.00232653 0)
(1.00061 0.00223842 0)
(1.00129 0.00211781 0)
(1.0017 0.00221976 0)
(1.00158 0.00247503 0)
(1.00102 0.00284491 0)
(1.00057 0.00309456 0)
(1.00067 0.00301305 0)
(1.00112 0.00293716 0)
(0.999988 0.000136549 0)
(1.00011 0.000327334 0)
(1.00012 0.000528587 0)
(1.00016 0.000627217 0)
(1.00029 0.000672838 0)
(1.00024 0.000907447 0)
(1.00011 0.00118984 0)
(1.00024 0.00126349 0)
(1.00056 0.00127648 0)
(1.00062 0.00156822 0)
(1.00037 0.00200546 0)
(1.0002 0.00231228 0)
(1.00053 0.00229397 0)
(1.00125 0.00211619 0)
(1.00178 0.0021037 0)
(1.00177 0.00230117 0)
(1.00126 0.00263334 0)
(1.00067 0.00297519 0)
(1.00059 0.00300849 0)
(1.00101 0.00287045 0)
(0.999986 0.000130958 0)
(1.0001 0.000311528 0)
(1.00011 0.000528434 0)