/*--------------------------------*- C++ -*----------------------------------*\
| =========                 |                                                 |
| \\      /  F ield         | OpenFOAM: The Open Source CFD Toolbox           |
|  \\    /   O peration     | Version:  2106                                  |
|   \\  /    A nd           | Website:  www.openfoam.com                      |
|    \\/     M anipulation  |                                                 |
\*---------------------------------------------------------------------------*/
FoamFile
{
    version     2.0;
    format      ascii;
    arch        "LSB;label=32;scalar=64";
    class       volScalarField;
    location    "0.345";
    object      p;
}
// * * * * * * * * * * * * * * * * * * * * * * * * * * * * * * * * * * * * * //

dimensions      [0 2 -2 0 0 0 0];

internalField   nonuniform List<scalar> 
9600
(
4.68893e-09
0.00113416
0.00124603
0.00217542
0.00158829
0.00333957
0.00188636
0.00335393
0.00318086
0.00393
0.00408883
0.00502558
0.0049733
0.00585332
0.00631123
0.0074992
0.00850792
0.0106233
0.0134066
0.0171519
7.20341e-06
0.00112636
0.00124084
0.00218975
0.00158946
0.00332985
0.00188742
0.00335602
0.00318693
0.00393076
0.00409134
0.00500965
0.00498113
0.00584921
0.00631296
0.00749486
0.00852714
0.0105652
0.0134858
0.0167567
1.42987e-05
0.00111807
0.00123804
0.00220606
0.00158701
0.0033187
0.00189322
0.00335663
0.00319456
0.00393189
0.00409484
0.0049954
0.00499319
0.00584144
0.00631646
0.0074909
0.00853632
0.0105129
0.0135036
0.0162135
2.10296e-05
0.00111543
0.00123739
0.00221747
0.00158284
0.00331309
0.00190264
0.00335411
0.00320296
0.00393417
0.00409847
0.00497838
0.00500713
0.00583105
0.00632064
0.00748263
0.00854487
0.0104544
0.0134681
0.0157504
2.90407e-05
0.00111837
0.00123716
0.00222412
0.00157907
0.00331177
0.00191372
0.0033488
0.00321268
0.00393645
0.00410077
0.00495848
0.00502287
0.00581848
0.00632521
0.0074699
0.0085534
0.0103856
0.0134065
0.0153367
3.91067e-05
0.00112582
0.00123632
0.00222684
0.00157635
0.00331284
0.00192507
0.00334085
0.00322351
0.00393748
0.00410146
0.00493703
0.00504009
0.00580458
0.00633047
0.0074531
0.00855959
0.0103106
0.0133196
0.0149482
5.1387e-05
0.00113644
0.00123403
0.00222622
0.00157491
0.00331568
0.00193581
0.00333033
0.00323531
0.00393703
0.00410123
0.00491603
0.00505858
0.00578986
0.00633634
0.00743265
0.00856255
0.0102311
0.0132038
0.0145792
6.56964e-05
0.00114873
0.00122991
0.00222315
0.00157478
0.00331993
0.00194583
0.00331762
0.00324824
0.00393523
0.00410093
0.00489443
0.00507802
0.00577429
0.00634258
0.00740903
0.00856104
0.0101484
0.0130582
0.0142268
8.16961e-05
0.00116155
0.00122418
0.00221859
0.00157571
0.00332509
0.00195566
0.00330323
0.0032624
0.0039321
0.00410119
0.00487193
0.00509804
0.00575758
0.00634878
0.00738284
0.00855339
0.0100633
0.0128837
0.0138872
9.90778e-05
0.00117423
0.00121737
0.0022132
0.00157743
0.00333067
0.00196598
0.00328745
0.00327777
0.00392749
0.00410238
0.00484824
0.00511832
0.00573968
0.00635426
0.00735484
0.00853774
0.00997654
0.0126822
0.0135555
0.000117651
0.00118649
0.00121001
0.00220739
0.00157975
0.00333614
0.00197728
0.00327041
0.00329432
0.00392129
0.00410468
0.00482325
0.0051386
0.00572075
0.0063581
0.00732591
0.00851229
0.00988795
0.0124566
0.0132265
0.000137337
0.00119822
0.00120252
0.00220133
0.0015826
0.00334099
0.00198989
0.00325214
0.00331204
0.00391338
0.00410818
0.00479684
0.00515862
0.00570115
0.00635932
0.00729679
0.0084756
0.00979687
0.0122097
0.0128977
0.000158131
0.00120937
0.00119516
0.00219511
0.00158599
0.00334482
0.00200398
0.00323259
0.00333095
0.00390366
0.00411283
0.00476884
0.00517801
0.00568141
0.00635677
0.00726793
0.00842696
0.00970205
0.0119446
0.0125621
0.000180064
0.0012199
0.0011881
0.00218872
0.00158994
0.00334734
0.00201969
0.00321166
0.00335108
0.00389208
0.00411852
0.00473687
0.00519622
0.00566224
0.00634916
0.0072395
0.00836642
0.00959899
0.011666
0.0122198
0.000203182
0.00122974
0.00118143
0.00218216
0.00159451
0.00334831
0.00203714
0.00318922
0.00337244
0.0038786
0.00412511
0.00470722
0.00521252
0.00564444
0.00633552
0.007211
0.00829423
0.00948585
0.0113794
0.0118703
0.000227535
0.00123883
0.00117522
0.00217542
0.00159973
0.00334757
0.00205642
0.00316516
0.00339503
0.00386325
0.00413234
0.00467766
0.00522604
0.00562867
0.00631511
0.00718136
0.00821147
0.00936044
0.0110886
0.0115146
0.000253168
0.00124709
0.00116951
0.00216851
0.00160564
0.00334494
0.00207763
0.00313936
0.00341882
0.00384612
0.0041398
0.00464868
0.00523592
0.0056152
0.00628762
0.00714918
0.00811999
0.0092207
0.0107956
0.0111549
0.000280124
0.00125446
0.0011643
0.00216141
0.00161226
0.00334028
0.00210082
0.00311175
0.00344371
0.00382739
0.004147
0.00462092
0.0052413
0.00560411
0.00625322
0.00711243
0.00802141
0.00906546
0.0105009
0.0107942
0.000308439
0.00126088
0.00115961
0.00215418
0.00161958
0.00333348
0.002126
0.00308227
0.00346957
0.00380734
0.00415334
0.00459503
0.00524156
0.00559517
0.00621235
0.00706885
0.00791725
0.00889492
0.0102039
0.010436
0.000338139
0.00126631
0.00115542
0.00214684
0.00162758
0.00332443
0.00215319
0.0030509
0.0034962
0.00378638
0.00415845
0.00457147
0.00523627
0.00558789
0.00616556
0.00701641
0.00780872
0.00871042
0.00990326
0.010083
0.000369242
0.00127073
0.00115169
0.00213948
0.0016362
0.00331309
0.00218237
0.00301765
0.00352334
0.00376498
0.00416096
0.00455065
0.0052251
0.00558158
0.00611368
0.00695325
0.00769601
0.00851422
0.00959714
0.00973686
0.000401753
0.00127413
0.00114835
0.00213218
0.00164536
0.00329939
0.00221357
0.00298251
0.00355064
0.00374368
0.00416066
0.00453284
0.00520779
0.00557519
0.00605768
0.00687802
0.00757848
0.00830932
0.00928462
0.00939766
0.000435661
0.00127655
0.00114527
0.00212509
0.00165495
0.00328328
0.00224684
0.00294553
0.00357775
0.003723
0.00415692
0.00451826
0.00518438
0.00556743
0.00599836
0.00678999
0.00745533
0.00809892
0.00896576
0.00906307
0.000470929
0.00127808
0.00114234
0.00211836
0.00166485
0.00326473
0.00228215
0.00290677
0.00360429
0.00370346
0.00414905
0.00450698
0.00515504
0.00555686
0.00593639
0.0066888
0.00732567
0.00788614
0.00864204
0.00872916
0.000507509
0.00127881
0.00113937
0.00211215
0.00167501
0.00324366
0.00231957
0.00286629
0.00362981
0.00368569
0.00413636
0.00449914
0.00512005
0.00554163
0.00587267
0.00657448
0.00718801
0.00767376
0.00831682
0.00839214
0.000545322
0.00127893
0.00113613
0.00210665
0.00168541
0.00321999
0.00235919
0.00282417
0.00365383
0.0036702
0.00411811
0.00449471
0.00507989
0.00551949
0.00580842
0.00644789
0.00704006
0.00746356
0.00799454
0.00805047
0.00058426
0.00127863
0.00113238
0.00210198
0.00169606
0.00319361
0.0024011
0.00278046
0.00367579
0.00365801
0.00409341
0.00449332
0.00503551
0.00548794
0.00574435
0.0063109
0.00687928
0.00725555
0.00767988
0.00770604
0.000624184
0.0012782
0.00112787
0.00209822
0.00170703
0.00316427
0.00244547
0.00273531
0.00369484
0.00365039
0.00406126
0.00449416
0.00498858
0.00544433
0.00568001
0.00616695
0.00670413
0.00704744
0.00737685
0.00736383
0.000664894
0.00127798
0.00112239
0.00209536
0.00171857
0.00313165
0.00249256
0.00268902
0.00370988
0.00364858
0.00402077
0.00449577
0.00494139
0.00538643
0.0056139
0.00602053
0.00651499
0.0068356
0.00708713
0.00703082
0.00070617
0.00127835
0.00111579
0.00209329
0.00173096
0.00309531
0.00254256
0.00264222
0.00371936
0.00365406
0.00397161
0.00449554
0.00489692
0.00531317
0.00554292
0.00587574
0.00631449
0.006616
0.00680853
0.00671318
0.000747799
0.00127969
0.00110796
0.00209175
0.00174463
0.00305472
0.00259561
0.00259591
0.0037213
0.0036681
0.00391429
0.00448953
0.00485813
0.00522534
0.00546244
0.00573546
0.00610702
0.00638609
0.00653659
0.00641286
0.00078949
0.00128241
0.00109885
0.00209033
0.00176019
0.00300931
0.00265137
0.00255155
0.00371361
0.00369174
0.00385027
0.00447294
0.00482699
0.00512585
0.00536726
0.00560038
0.00589808
0.00614609
0.00626656
0.00612578
0.000830899
0.00128692
0.00108862
0.00208843
0.00177842
0.00295881
0.00270937
0.0025109
0.00369422
0.00372353
0.00378241
0.00444094
0.00480333
0.00501981
0.00525305
0.00546826
0.00569384
0.00589844
0.00599564
0.00584654
0.000871701
0.00129356
0.00107756
0.00208523
0.00180012
0.00290333
0.00276797
0.00247608
0.00366107
0.00376232
0.00371496
0.00438967
0.00478488
0.00491392
0.005118
0.0053344
0.00550003
0.00564725
0.00572257
0.00557201
0.000911548
0.00130265
0.00106621
0.0020797
0.00182579
0.00284313
0.00282526
0.00244968
0.00361296
0.00380518
0.00365301
0.00431722
0.00476694
0.00481492
0.00496366
0.0051919
0.00532022
0.00539865
0.00544568
0.00530182
0.000950098
0.00131442
0.00105535
0.0020706
0.00185544
0.0027789
0.00287951
0.00243404
0.00354993
0.00384792
0.00360129
0.00422377
0.00474289
0.00472824
0.00479472
0.0050329
0.00515365
0.00516147
0.00516369
0.0050341
0.000987089
0.00132899
0.00104587
0.00205689
0.00188885
0.00271186
0.00292847
0.0024308
0.00347291
0.00388575
0.00356301
0.00411124
0.00470545
0.00465684
0.00461877
0.00485101
0.00499388
0.00494586
0.0048809
0.00476211
0.0010223
0.00134626
0.00103884
0.0020378
0.00192526
0.00264378
0.0029697
0.00244058
0.00338439
0.00391372
0.00354009
0.00398331
0.00464757
0.00460005
0.00444561
0.00464479
0.00483065
0.00475793
0.00461057
0.00447865
0.0010555
0.0013659
0.00103542
0.00201298
0.00196318
0.00257655
0.00300127
0.00246324
0.00328766
0.00392703
0.00353318
0.00384523
0.00456301
0.0045537
0.00428565
0.0044192
0.00465175
0.00459329
0.00436896
0.00418737
0.00108656
0.00138747
0.00103659
0.00198236
0.00200083
0.00251182
0.003022
0.00249798
0.0031861
0.0039213
0.003541
0.00370341
0.00444786
0.00451114
0.00414781
0.0041834
0.00444825
0.00443978
0.00416751
0.00390831
0.00111547
0.00141029
0.00104314
0.0019463
0.00203643
0.00245107
0.00303114
0.00254294
0.00308346
0.00389328
0.00356041
0.00356581
0.00430154
0.00446277
0.00403661
0.00394848
0.00421935
0.00428253
0.00400161
0.00366316
0.00114221
0.00143353
0.00105556
0.0019062
0.00206837
0.00239517
0.00302817
0.002596
0.00298344
0.00384068
0.00358691
0.00344107
0.00412718
0.00439717
0.00395082
0.0037267
0.00397106
0.00411147
0.00385747
0.00346147
0.00116294
0.0014565
0.00107409
0.00186381
0.00209519
0.002344
0.00301281
0.00265539
0.00288878
0.00376203
0.00361419
0.00333693
0.00393106
0.00430329
0.00388435
0.00352966
0.0037106
0.00392411
0.00372528
0.00329549
0.00118611
0.00147857
0.00109862
0.00182064
0.00211593
0.00229695
0.00298468
0.00271754
0.0028039
0.00365823
0.00363369
0.0032581
0.00372229
0.00417362
0.00382777
0.00336671
0.00344687
0.0037165
0.00360207
0.003159
0.00120769
0.00149921
0.00112849
0.00177828
0.00213043
0.00225357
0.00294286
0.00277963
0.00273641
0.00353233
0.00363632
0.00320486
0.00351261
0.00400722
0.00376653
0.00324078
0.00319563
0.00348383
0.00347957
0.00305486
0.00122783
0.00151802
0.0011627
0.00173789
0.00213908
0.00221408
0.00288645
0.00283762
0.00268987
0.00338863
0.00361305
0.00317347
0.00331579
0.0038098
0.0036844
0.00314436
0.00297565
0.00323355
0.0033397
0.00298051
0.00124676
0.00153465
0.00120017
0.00170049
0.00214213
0.00217883
0.00281575
0.00288524
0.00266638
0.00323538
0.00355668
0.00315628
0.00314389
0.00359017
0.00357262
0.00306436
0.00279463
0.00298605
0.0031682
0.00291667
0.00126467
0.00154889
0.00123998
0.00166744
0.00213971
0.00214871
0.00273217
0.00291536
0.00266374
0.00308567
0.0034676
0.00314046
0.00300071
0.00336107
0.00343095
0.00298668
0.00264738
0.00275909
0.00297229
0.00283717
0.00128172
0.00156066
0.00128121
0.00165044
0.00213183
0.00212479
0.00263764
0.0029221
0.00267763
0.00294977
0.00335021
0.00311294
0.00288314
0.00313618
0.00326258
0.00290378
0.00252694
0.00255854
0.00277158
0.00272736
0.00129803
0.00156991
0.00132256
0.00162366
0.00211808
0.00210749
0.00253648
0.00290065
0.00270078
0.0028353
0.00321136
0.00306513
0.00278674
0.00292472
0.00307193
0.00280957
0.00242983
0.00238455
0.00257941
0.00259536
0.0013137
0.00157669
0.0013631
0.00160026
0.00209832
0.00209617
0.00243555
0.00285002
0.00271956
0.00274619
0.00306454
0.00299377
0.00270188
0.00273186
0.00286735
0.00269651
0.00235106
0.00224018
0.00240019
0.00245688
0.0013288
0.001581
0.0014021
0.00158042
0.00207195
0.00208964
0.00234083
0.00277213
0.00272147
0.00267913
0.00292454
0.00290285
0.00261723
0.00255746
0.00265869
0.00256099
0.00227972
0.00212985
0.00223768
0.00231917
0.00134332
0.00158293
0.00143889
0.00156445
0.00203825
0.00208557
0.00225727
0.0026711
0.00269992
0.00262714
0.00279691
0.00280117
0.00253114
0.0023965
0.00245187
0.00240562
0.00220213
0.00205225
0.00210187
0.00218244
0.00135727
0.00158254
0.00147278
0.00155241
0.00199755
0.00208021
0.00218733
0.00255605
0.00265028
0.00257866
0.00268335
0.00269611
0.00244574
0.00224842
0.00224749
0.00223516
0.00210823
0.00199392
0.00200422
0.00205455
0.0013707
0.00157986
0.00150308
0.00154409
0.00195065
0.00206936
0.00213069
0.00243909
0.0025736
0.00252021
0.00258329
0.00259438
0.0023627
0.00211582
0.00204782
0.00205036
0.00199507
0.00193649
0.00194538
0.00195308
0.00138364
0.00157498
0.00152904
0.00154012
0.00189886
0.00204905
0.00208567
0.00232837
0.00247479
0.00244446
0.00248677
0.00250001
0.00228634
0.00200009
0.00185961
0.00185094
0.00185942
0.0018666
0.00190754
0.00189404
0.00139609
0.00156807
0.00154985
0.00154045
0.0018442
0.00201679
0.00204859
0.00222873
0.00236344
0.00235088
0.00238307
0.00240963
0.00222228
0.00190484
0.00168847
0.00164357
0.00169655
0.00177482
0.00186874
0.00187456
0.00140795
0.00155941
0.00156458
0.00154407
0.00178955
0.00197189
0.00201324
0.0021426
0.00224952
0.00224058
0.00226735
0.00231291
0.00216747
0.00183729
0.00154265
0.001436
0.00150636
0.00165293
0.00181
0.00186781
0.00141905
0.0015494
0.00157247
0.00154967
0.0017382
0.00191555
0.00197254
0.00206881
0.00214172
0.00211979
0.00213779
0.00220286
0.00211265
0.00179596
0.0014347
0.00124084
0.0012933
0.00149518
0.001719
0.00184817
0.00142909
0.00153853
0.00157327
0.00155538
0.00169272
0.00185037
0.00192146
0.00200385
0.00204559
0.00199847
0.00199588
0.00207445
0.00204687
0.00177235
0.00137113
0.00107812
0.00106742
0.00129905
0.00159082
0.00179583
0.00143818
0.00152732
0.00156734
0.00155874
0.00165413
0.0017803
0.00185803
0.00194076
0.00196222
0.00188535
0.001848
0.00192564
0.0019606
0.00175409
0.00134546
0.000965349
0.000851487
0.00106761
0.00142061
0.0017026
0.00144497
0.00151619
0.00155541
0.00155723
0.00162177
0.0017108
0.00178324
0.00187183
0.00188977
0.00178629
0.00170502
0.0017618
0.0018452
0.00172564
0.00134784
0.000908018
0.000674703
0.000816922
0.00120436
0.0015643
0.00144922
0.00150531
0.00153868
0.0015489
0.00159397
0.00164671
0.00170017
0.00179179
0.00182276
0.00170387
0.00157531
0.00159221
0.00170014
0.00167106
0.00136197
0.000899151
0.000558209
0.000578494
0.000945833
0.00137403
0.00145058
0.0014945
0.00151873
0.00153308
0.00156812
0.00159014
0.00161427
0.00169947
0.00175186
0.00163675
0.00146512
0.00142871
0.00153397
0.00158009
0.00136579
0.00092572
0.000508096
0.000387025
0.000668095
0.00112883
0.00144877
0.00148338
0.00149715
0.00151029
0.00154081
0.00154066
0.00153225
0.00159819
0.00166906
0.0015794
0.001379
0.00128074
0.00135751
0.00145368
0.00134082
0.000965411
0.000513954
0.000265426
0.00040885
0.000838407
0.00144371
0.00147138
0.00147525
0.00148173
0.00150915
0.00149649
0.00145854
0.00149312
0.00157173
0.00152033
0.0013152
0.00115721
0.00118366
0.00130032
0.00127768
0.000992945
0.000556946
0.000216852
0.000204049
0.000535701
0.00143548
0.00145787
0.00145364
0.00144908
0.00147188
0.00145502
0.0013944
0.00139133
0.00146307
0.00144931
0.00126632
0.00106468
0.00102514
0.0011302
0.00117656
0.000991003
0.000608758
0.000225532
7.44068e-05
0.000263583
0.00142439
0.00144232
0.00143223
0.00141454
0.00142924
0.00141282
0.00133864
0.00129896
0.00134871
0.00136273
0.00121906
0.000999927
0.000894511
0.000958095
0.00104341
0.00095108
0.000645489
0.000266995
1.79166e-05
5.61638e-05
0.00141087
0.00142437
0.00141045
0.00138013
0.00138273
0.00136721
0.00128887
0.00121909
0.00123577
0.00126265
0.00116238
0.000953441
0.000797975
0.000801139
0.000888296
0.000871158
0.000652223
0.000311942
1.55202e-05
-7.27366e-05
0.00139539
0.00140406
0.00138762
0.00134702
0.0013343
0.0013174
0.00124177
0.00115136
0.00113163
0.00115472
0.00109203
0.000911792
0.000730039
0.000672515
0.000729253
0.000756902
0.000621115
0.000340642
4.04161e-05
-0.000133589
0.00137836
0.00138176
0.00136322
0.00131537
0.00128623
0.0012643
0.00119418
0.00109322
0.00104079
0.00104593
0.00100858
0.000864626
0.000680756
0.000575887
0.000584815
0.000621186
0.000552114
0.000340807
6.7472e-05
-0.000147132
0.00136012
0.00135805
0.00133706
0.00128484
0.00124049
0.00120979
0.00114452
0.00104154
0.000964063
0.000943722
0.000916636
0.00080739
0.00063846
0.000505129
0.000466132
0.000483594
0.000453819
0.000307855
8.00719e-05
-0.000138862
0.00134096
0.00133361
0.00130948
0.00125494
0.00119814
0.00115605
0.00109295
0.000993018
0.000899525
0.00085341
0.000822718
0.000739634
0.000594464
0.000451581
0.000374936
0.000360582
0.000341536
0.000246014
6.92492e-05
-0.000130041
0.00132124
0.00130917
0.00128117
0.00122537
0.00115942
0.00110511
0.00104088
0.000945633
0.000844294
0.00077674
0.000733782
0.000665105
0.00054451
0.000406226
0.000305768
0.000259999
0.000232597
0.00016592
3.43156e-05
-0.000133796
0.0013014
0.00128534
0.00125305
0.00119619
0.0011242
0.00105852
0.000990175
0.000898956
0.000795518
0.000712508
0.000654973
0.000590118
0.00048863
0.000362339
0.000251646
0.000181641
0.000138118
8.16441e-05
-1.76863e-05
-0.000154153
0.00128199
0.0012627
0.00122616
0.00116792
0.00109217
0.00101725
0.000942968
0.000853726
0.000751152
0.000658575
0.000587918
0.000520468
0.000430754
0.00031749
0.000205964
0.000120558
6.11175e-05
4.00235e-06
-7.6824e-05
-0.000187608
0.0012637
0.00124192
0.00120154
0.00114148
0.0010633
0.000981465
0.000900966
0.000811739
0.000710829
0.000613133
0.000532009
0.00045939
0.000375714
0.000273473
0.000165802
7.21271e-05
-5.96307e-07
-6.3529e-05
-0.000135722
-0.000228249
0.00124723
0.00122363
0.00118015
0.00111815
0.00103839
0.000951493
0.000865194
0.000774816
0.000675762
0.000575795
0.000486684
0.000407732
0.00032639
0.000233044
0.000131568
3.49881e-05
-4.77521e-05
-0.000119482
-0.000191356
-0.000273366
0.00123333
0.00120851
0.00116265
0.00109897
0.00101859
0.000928757
0.000837943
0.000745937
0.000648599
0.000548547
0.000454354
0.000369318
0.000286999
0.000198735
0.000103299
7.82983e-06
-7.95649e-05
-0.000157049
-0.000230045
-0.000306484
0.00122194
0.00119513
0.00114653
0.0010801
0.000998245
0.000906417
0.000812219
0.000717912
0.000620956
0.000521739
0.000425851
0.000337187
0.000252728
0.000165954
7.39956e-05
-1.96258e-05
-0.00010874
-0.000190146
-0.000266
-0.000341751
0.0246678
0.0169104
0.00695012
-0.000253402
-0.00274282
-0.00246096
-0.00184282
-0.0015546
-0.00152295
-0.00167638
-0.00192808
-0.00214533
-0.00229335
-0.00241776
-0.0025736
-0.00280149
-0.00304449
-0.0032267
-0.003371
-0.00351438
-0.00366409
-0.0038089
-0.00392946
-0.00406656
-0.00424287
-0.00438688
-0.00449782
-0.0046585
-0.00485666
-0.00503597
-0.00520671
-0.00538506
-0.00555488
-0.00571071
-0.00588367
-0.00608276
-0.00625259
-0.00639527
-0.00658223
-0.00678335
-0.00692962
-0.00706867
-0.00724401
-0.00741092
-0.00755435
-0.00770912
-0.00787691
-0.00803795
-0.00819183
-0.00834829
-0.00850589
-0.00866288
-0.00882362
-0.00899006
-0.00915675
-0.00932455
-0.00949877
-0.00967726
-0.00985668
-0.0100386
-0.0102277
-0.0104203
-0.0106169
-0.0108162
-0.011022
-0.011231
-0.0114453
-0.0116634
-0.0118865
-0.0121146
-0.0123464
-0.0125849
-0.012826
-0.013075
-0.0133263
-0.0135852
-0.0138478
-0.0141162
-0.0143912
-0.0146692
-0.0149564
-0.0152455
-0.0155436
-0.015846
-0.0161528
-0.0164701
-0.0167859
-0.0171161
-0.0174452
-0.0177826
-0.0181308
-0.0184724
-0.0188369
-0.0191924
-0.019557
-0.0199376
-0.0203042
-0.0206853
-0.0210636
-0.0214369
0.0233843
0.016713
0.00702881
-0.000108752
-0.00265036
-0.0024163
-0.00181616
-0.00153674
-0.00150983
-0.00166586
-0.00191938
-0.00213799
-0.00228695
-0.00241205
-0.00256841
-0.00279694
-0.00304064
-0.00322335
-0.003368
-0.00351168
-0.00366165
-0.00380671
-0.00392742
-0.00406461
-0.00424113
-0.00438533
-0.0044963
-0.00465704
-0.00485535
-0.00503475
-0.00520556
-0.005384
-0.00555391
-0.00570979
-0.00588279
-0.00608197
-0.00625191
-0.0063946
-0.00658159
-0.00678284
-0.00692918
-0.00706823
-0.00724362
-0.00741061
-0.00755406
-0.00770886
-0.00787669
-0.00803777
-0.00819167
-0.00834815
-0.00850577
-0.00866278
-0.00882353
-0.00898999
-0.00915669
-0.00932449
-0.00949873
-0.00967723
-0.00985665
-0.0100386
-0.0102277
-0.0104203
-0.0106169
-0.0108162
-0.0110219
-0.011231
-0.0114453
-0.0116634
-0.0118865
-0.0121146
-0.0123464
-0.0125849
-0.012826
-0.013075
-0.0133263
-0.0135852
-0.0138478
-0.0141162
-0.0143912
-0.0146692
-0.0149564
-0.0152455
-0.0155436
-0.015846
-0.0161528
-0.0164701
-0.0167859
-0.0171161
-0.0174452
-0.0177826
-0.0181308
-0.0184724
-0.0188369
-0.0191924
-0.019557
-0.0199376
-0.0203042
-0.0206853
-0.0210636
-0.0214369
0.0223251
0.0165577
0.00721057
0.000165927
-0.00249106
-0.00235743
-0.0017876
-0.00151546
-0.00149345
-0.00165334
-0.00190937
-0.00212965
-0.00227998
-0.00240616
-0.0025632
-0.00279227
-0.00303658
-0.00321983
-0.00336495
-0.00350904
-0.0036593
-0.00380463
-0.00392551
-0.0040628
-0.00423954
-0.00438388
-0.00449486
-0.00465571
-0.00485418
-0.00503366
-0.00520451
-0.00538304
-0.00555303
-0.00570895
-0.00588197
-0.00608125
-0.00625128
-0.00639396
-0.00658101
-0.00678238
-0.00692875
-0.0070678
-0.00724327
-0.00741032
-0.00755378
-0.0077086
-0.00787649
-0.00803759
-0.00819152
-0.00834801
-0.00850565
-0.00866268
-0.00882344
-0.00898991
-0.00915662
-0.00932444
-0.00949868
-0.00967719
-0.00985662
-0.0100386
-0.0102277
-0.0104203
-0.0106169
-0.0108162
-0.0110219
-0.011231
-0.0114453
-0.0116634
-0.0118865
-0.0121146
-0.0123464
-0.0125849
-0.012826
-0.013075
-0.0133263
-0.0135852
-0.0138478
-0.0141162
-0.0143912
-0.0146692
-0.0149564
-0.0152455
-0.0155436
-0.015846
-0.0161528
-0.0164701
-0.0167859
-0.0171161
-0.0174452
-0.0177826
-0.0181309
-0.0184724
-0.0188369
-0.0191924
-0.019557
-0.0199376
-0.0203042
-0.0206853
-0.0210636
-0.0214369
0.021366
0.0163834
0.00742937
0.000504851
-0.00227659
-0.00227514
-0.00174586
-0.00148279
-0.00146864
-0.00163541
-0.0018954
-0.00211801
-0.00227056
-0.0023988
-0.00255693
-0.00278624
-0.00303075
-0.00321462
-0.00336065
-0.00350549
-0.00365625
-0.003802
-0.00392321
-0.00406068
-0.00423759
-0.00438207
-0.00449315
-0.0046542
-0.00485287
-0.00503239
-0.00520328
-0.00538192
-0.00555203
-0.00570799
-0.00588102
-0.00608039
-0.0062505
-0.00639319
-0.0065803
-0.00678179
-0.00692818
-0.00706725
-0.00724281
-0.00740993
-0.00755341
-0.00770827
-0.00787622
-0.00803736
-0.00819131
-0.00834783
-0.0085055
-0.00866254
-0.00882332
-0.00898981
-0.00915654
-0.00932437
-0.00949862
-0.00967714
-0.00985658
-0.0100385
-0.0102276
-0.0104203
-0.0106169
-0.0108162
-0.0110219
-0.011231
-0.0114453
-0.0116634
-0.0118865
-0.0121146
-0.0123464
-0.0125849
-0.012826
-0.013075
-0.0133263
-0.0135852
-0.0138478
-0.0141162
-0.0143912
-0.0146692
-0.0149564
-0.0152455
-0.0155436
-0.015846
-0.0161528
-0.0164701
-0.0167859
-0.0171161
-0.0174452
-0.0177826
-0.0181309
-0.0184724
-0.0188369
-0.0191924
-0.019557
-0.0199376
-0.0203042
-0.0206853
-0.0210637
-0.021437
0.0204167
0.0161572
0.00764617
0.000858481
-0.00204272
-0.00218255
-0.00169779
-0.00144218
-0.00143604
-0.00161136
-0.00187633
-0.00210177
-0.00225741
-0.002389
-0.00254905
-0.00277831
-0.00302235
-0.00320681
-0.00335424
-0.00350026
-0.00365176
-0.00379827
-0.00392019
-0.00405799
-0.00423494
-0.00437951
-0.00449085
-0.00465225
-0.00485114
-0.0050307
-0.00520164
-0.00538042
-0.00555072
-0.00570677
-0.00587977
-0.00607917
-0.0062494
-0.00639216
-0.00657931
-0.00678087
-0.0069273
-0.00706644
-0.00724212
-0.00740931
-0.00755283
-0.00770777
-0.00787579
-0.00803698
-0.00819097
-0.00834755
-0.00850525
-0.00866232
-0.00882313
-0.00898965
-0.0091564
-0.00932425
-0.00949852
-0.00967705
-0.0098565
-0.0100385
-0.0102276
-0.0104202
-0.0106168
-0.0108162
-0.0110219
-0.011231
-0.0114453
-0.0116634
-0.0118865
-0.0121146
-0.0123464
-0.0125849
-0.012826
-0.013075
-0.0133263
-0.0135852
-0.0138478
-0.0141162
-0.0143912
-0.0146692
-0.0149564
-0.0152455
-0.0155436
-0.015846
-0.0161528
-0.0164701
-0.0167859
-0.0171161
-0.0174452
-0.0177826
-0.0181309
-0.0184724
-0.0188369
-0.0191924
-0.019557
-0.0199376
-0.0203042
-0.0206853
-0.0210637
-0.0214372
0.0194785
0.0158848
0.00785397
0.00121389
-0.00180073
-0.0020864
-0.00164985
-0.00139965
-0.00139971
-0.00158347
-0.00185352
-0.00208182
-0.00224102
-0.00237689
-0.00253958
-0.00276855
-0.00301144
-0.00319632
-0.00334553
-0.00349309
-0.00364549
-0.00379305
-0.00391621
-0.00405459
-0.00423144
-0.00437606
-0.00448786
-0.00464968
-0.00484877
-0.00502839
-0.00519937
-0.00537833
-0.00554896
-0.0057052
-0.00587809
-0.0060774
-0.00624782
-0.00639077
-0.00657791
-0.00677943
-0.00692596
-0.00706525
-0.00724103
-0.0074083
-0.00755192
-0.00770698
-0.00787509
-0.00803635
-0.00819042
-0.00834708
-0.00850485
-0.00866196
-0.0088228
-0.00898937
-0.00915617
-0.00932405
-0.00949835
-0.0096769
-0.00985637
-0.0100384
-0.0102275
-0.0104202
-0.0106168
-0.0108161
-0.0110219
-0.0112309
-0.0114453
-0.0116634
-0.0118864
-0.0121146
-0.0123464
-0.0125849
-0.012826
-0.013075
-0.0133263
-0.0135852
-0.0138478
-0.0141162
-0.0143912
-0.0146692
-0.0149564
-0.0152455
-0.0155436
-0.015846
-0.0161528
-0.0164701
-0.0167859
-0.0171161
-0.0174452
-0.0177826
-0.0181309
-0.0184724
-0.0188369
-0.0191925
-0.019557
-0.0199376
-0.0203042
-0.0206853
-0.0210638
-0.0214373
0.0185621
0.0155722
0.00804823
0.00156785
-0.00155153
-0.00198664
-0.00160312
-0.00135721
-0.00136142
-0.00155314
-0.00182837
-0.00205962
-0.00222256
-0.00236319
-0.00252886
-0.00275739
-0.0029987
-0.00318386
-0.00333503
-0.00348425
-0.00363753
-0.00378629
-0.00391116
-0.00405042
-0.00422707
-0.00437177
-0.00448423
-0.00464649
-0.00484567
-0.00502532
-0.00519629
-0.00537544
-0.00554661
-0.00570322
-0.00587587
-0.00607493
-0.00624564
-0.00638894
-0.00657599
-0.00677734
-0.00692402
-0.00706356
-0.00723943
-0.00740676
-0.00755056
-0.0077058
-0.00787401
-0.00803537
-0.00818957
-0.00834635
-0.00850421
-0.00866139
-0.00882229
-0.00898892
-0.00915579
-0.00932373
-0.00949807
-0.00967665
-0.00985616
-0.0100382
-0.0102273
-0.01042
-0.0106167
-0.010816
-0.0110218
-0.0112309
-0.0114452
-0.0116634
-0.0118864
-0.0121146
-0.0123464
-0.0125849
-0.012826
-0.013075
-0.0133263
-0.0135852
-0.0138478
-0.0141162
-0.0143912
-0.0146692
-0.0149564
-0.0152455
-0.0155436
-0.015846
-0.0161528
-0.0164701
-0.0167859
-0.0171161
-0.0174452
-0.0177826
-0.0181309
-0.0184724
-0.0188369
-0.0191925
-0.019557
-0.0199376
-0.0203042
-0.0206854
-0.0210639
-0.0214375
0.0176752
0.01522
0.00822279
0.00191931
-0.00129301
-0.00188071
-0.00155674
-0.00131522
-0.00132161
-0.00152078
-0.00180153
-0.00203598
-0.0022028
-0.00234833
-0.00251717
-0.00274523
-0.0029848
-0.00317019
-0.00332338
-0.0034743
-0.00362836
-0.00377831
-0.00390515
-0.00404547
-0.00422192
-0.00436681
-0.00448014
-0.00464285
-0.00484195
-0.0050215
-0.00519235
-0.00537166
-0.00554357
-0.00570076
-0.00587308
-0.00607168
-0.00624278
-0.00638664
-0.00657349
-0.00677451
-0.00692144
-0.00706134
-0.00723725
-0.00740461
-0.00754866
-0.00770414
-0.00787246
-0.00803395
-0.00818834
-0.00834528
-0.00850327
-0.00866055
-0.00882153
-0.00898825
-0.00915521
-0.00932325
-0.00949764
-0.00967627
-0.00985583
-0.0100379
-0.0102271
-0.0104198
-0.0106165
-0.0108159
-0.0110217
-0.0112308
-0.0114451
-0.0116633
-0.0118863
-0.0121146
-0.0123463
-0.0125849
-0.012826
-0.013075
-0.0133262
-0.0135852
-0.0138478
-0.0141162
-0.0143912
-0.0146692
-0.0149564
-0.0152455
-0.0155436
-0.015846
-0.0161528
-0.0164701
-0.0167859
-0.0171161
-0.0174452
-0.0177826
-0.0181309
-0.0184724
-0.0188369
-0.0191925
-0.019557
-0.0199377
-0.0203042
-0.0206854
-0.021064
-0.0214378
0.0168226
0.0148292
0.00837294
0.00226805
-0.001023
-0.00176625
-0.00150999
-0.0012742
-0.00128079
-0.00148659
-0.00177317
-0.00201115
-0.00218194
-0.00233248
-0.00250463
-0.00273232
-0.00297013
-0.00315574
-0.003311
-0.00346362
-0.00361838
-0.00376949
-0.00389841
-0.00403989
-0.00421611
-0.0043613
-0.00447573
-0.00463894
-0.00483785
-0.00501713
-0.00518768
-0.00536704
-0.00553983
-0.0056978
-0.00586976
-0.00606771
-0.00623926
-0.00638384
-0.00657042
-0.00677097
-0.00691824
-0.00705862
-0.0072345
-0.00740187
-0.00754624
-0.00770199
-0.00787041
-0.00803204
-0.00818667
-0.00834384
-0.00850199
-0.0086594
-0.00882049
-0.00898731
-0.00915441
-0.00932257
-0.00949704
-0.00967572
-0.00985535
-0.0100375
-0.0102268
-0.0104195
-0.0106162
-0.0108157
-0.0110215
-0.0112306
-0.011445
-0.0116632
-0.0118863
-0.0121145
-0.0123463
-0.0125848
-0.0128259
-0.0130749
-0.0133262
-0.0135852
-0.0138478
-0.0141162
-0.0143912
-0.0146692
-0.0149564
-0.0152455
-0.0155436
-0.015846
-0.0161528
-0.0164701
-0.0167859
-0.0171161
-0.0174452
-0.0177826
-0.0181309
-0.0184724
-0.0188369
-0.0191925
-0.019557
-0.0199377
-0.0203042
-0.0206854
-0.0210642
-0.0214381
0.0160085
0.0144044
0.00849545
0.0026128
-0.000740895
-0.00164176
-0.00146248
-0.0012349
-0.0012396
-0.00145067
-0.00174318
-0.00198504
-0.00215998
-0.00231568
-0.00249135
-0.00271878
-0.00295481
-0.00314063
-0.00329801
-0.00345239
-0.00360783
-0.00376006
-0.0038911
-0.00403381
-0.00420982
-0.00435536
-0.00447106
-0.00463486
-0.00483353
-0.00501242
-0.00518248
-0.00536177
-0.00553549
-0.0056944
-0.00586598
-0.00606316
-0.00623518
-0.00638061
-0.00656684
-0.0067668
-0.00691452
-0.00705548
-0.00723129
-0.00739863
-0.00754338
-0.00769942
-0.00786791
-0.00802968
-0.00818459
-0.00834202
-0.00850038
-0.00865796
-0.00881917
-0.0089861
-0.00915336
-0.00932168
-0.00949626
-0.009675
-0.00985471
-0.010037
-0.0102263
-0.0104191
-0.0106159
-0.0108154
-0.0110212
-0.0112304
-0.0114448
-0.011663
-0.0118861
-0.0121144
-0.0123462
-0.0125848
-0.0128259
-0.0130749
-0.0133262
-0.0135852
-0.0138478
-0.0141162
-0.0143912
-0.0146692
-0.0149564
-0.0152455
-0.0155436
-0.015846
-0.0161528
-0.0164701
-0.0167859
-0.0171161
-0.0174452
-0.0177826
-0.0181309
-0.0184724
-0.018837
-0.0191925
-0.019557
-0.0199377
-0.0203043
-0.0206854
-0.0210644
-0.0214385
0.0152367
0.0139525
0.00858702
0.00295025