/*--------------------------------*- C++ -*----------------------------------*\
| =========                 |                                                 |
| \\      /  F ield         | OpenFOAM: The Open Source CFD Toolbox           |
|  \\    /   O peration     | Version:  2106                                  |
|   \\  /    A nd           | Website:  www.openfoam.com                      |
|    \\/     M anipulation  |                                                 |
\*---------------------------------------------------------------------------*/
FoamFile
{
    version     2.0;
    format      ascii;
    arch        "LSB;label=32;scalar=64";
    class       surfaceScalarField;
    location    "0.43";
    object      phi;
}
// * * * * * * * * * * * * * * * * * * * * * * * * * * * * * * * * * * * * * //

dimensions      [0 3 -1 0 0 0 0];

oriented        oriented;

internalField   nonuniform List<scalar> 
19000
(
1.178e-06
-3.85992e-07
1.18388e-06
-3.03411e-07
1.19094e-06
-3.10231e-07
1.16081e-06
5.69732e-07
1.15122e-06
-4.73809e-08
1.17156e-06
3.95259e-07
1.19867e-06
-7.57092e-07
1.20294e-06
-5.90293e-08
1.22697e-06
-4.27555e-07
1.23718e-06
8.11389e-08
1.2445e-06
-7.61499e-08
1.23101e-06
2.69946e-07
1.22571e-06
1.86164e-07
1.21644e-06
2.33583e-07
1.21779e-06
9.6231e-08
1.21408e-06
7.53666e-08
1.22169e-06
-3.28428e-08
1.21118e-06
-8.18714e-08
1.21549e-06
4.96826e-10
-2.10422e-07
1.16681e-06
1.23464e-06
-3.96367e-07
1.24089e-06
-3.09669e-07
1.24925e-06
-3.18585e-07
1.2256e-06
5.93382e-07
1.21368e-06
-3.54602e-08
1.2359e-06
3.73041e-07
1.26141e-06
-7.8261e-07
1.26767e-06
-6.52877e-08
1.29159e-06
-4.51474e-07
1.30412e-06
6.86061e-08
1.30831e-06
-8.03348e-08
1.3014e-06
2.7685e-07
1.28665e-06
2.00919e-07
1.28814e-06
2.32093e-07
1.27544e-06
1.0893e-07
1.28593e-06
6.48743e-08
1.27353e-06
-2.04354e-08
1.28285e-06
-9.11966e-08
1.26135e-06
2.2001e-08
-1.98708e-07
1.24963e-06
1.29111e-06
-4.04688e-07
1.30169e-06
-3.2025e-07
1.31045e-06
-3.27352e-07
1.29792e-06
6.05916e-07
1.28197e-06
-1.95128e-08
1.30253e-06
3.52488e-07
1.31956e-06
-7.99641e-07
1.33356e-06
-7.92905e-08
1.35257e-06
-4.70482e-07
1.3738e-06
4.73726e-08
1.37188e-06
-7.84123e-08
1.37395e-06
2.74781e-07
1.35291e-06
2.21959e-07
1.35676e-06
2.28238e-07
1.34061e-06
1.25086e-07
1.34651e-06
5.89757e-08
1.33408e-06
-8.00999e-09
1.33562e-06
-9.27416e-08
1.32557e-06
3.20566e-08
-1.76589e-07
1.30345e-06
1.34784e-06
-4.08421e-07
1.36314e-06
-3.3555e-07
1.37304e-06
-3.37257e-07
1.37149e-06
6.07463e-07
1.35367e-06
-1.68582e-09
1.36743e-06
3.38728e-07
1.3727e-06
-8.0491e-07
1.39271e-06
-9.93046e-08
1.40801e-06
-4.85783e-07
1.43534e-06
2.00446e-08
1.43361e-06
-7.66844e-08
1.43936e-06
2.69032e-07
1.42194e-06
2.39383e-07
1.42079e-06
2.29382e-07
1.40725e-06
1.38629e-07
1.40492e-06
6.13096e-08
1.39338e-06
3.52269e-09
1.3891e-06
-8.84572e-08
1.38185e-06
3.93077e-08
-1.52005e-07
1.35726e-06
1.40615e-06
-4.06217e-07
1.42406e-06
-3.53464e-07
1.43637e-06
-3.49565e-07
1.44291e-06
6.00925e-07
1.42651e-06
1.47128e-08
1.43073e-06
3.34509e-07
1.42451e-06
-7.98692e-07
1.44614e-06
-1.20931e-07
1.4601e-06
-4.99745e-07
1.48974e-06
-9.59413e-09
1.4929e-06
-7.98474e-08
1.50081e-06
2.6112e-07
1.48969e-06
2.50504e-07
1.48516e-06
2.33912e-07
1.4723e-06
1.5149e-07
1.46543e-06
6.81862e-08
1.45215e-06
1.68027e-08
1.44467e-06
-8.09863e-08
1.43758e-06
4.6401e-08
-1.26696e-07
1.41227e-06
1.46815e-06
-3.98694e-07
1.48532e-06
-3.7063e-07
1.50056e-06
-3.64803e-07
1.51182e-06
5.89662e-07
1.49929e-06
2.72432e-08
1.49497e-06
3.38831e-07
1.47989e-06
-7.83615e-07
1.4995e-06
-1.40537e-07
1.51264e-06
-5.12887e-07
1.54236e-06
-3.93104e-08
1.55062e-06
-8.81136e-08
1.56169e-06
2.50052e-07
1.55548e-06
2.56713e-07
1.55037e-06
2.39022e-07
1.53698e-06
1.64878e-07
1.5278e-06
7.73681e-08
1.51313e-06
3.14788e-08
1.50296e-06
-7.08212e-08
1.49647e-06
5.28889e-08
-1.00858e-07
1.47063e-06
1.53555e-06
-3.88031e-07
1.54905e-06
-3.84128e-07
1.56612e-06
-3.81877e-07
1.57975e-06
5.76041e-07
1.57166e-06
3.53327e-08
1.56257e-06
3.47914e-07
1.54196e-06
-7.63005e-07
1.55772e-06
-1.5629e-07
1.56858e-06
-5.23746e-07
1.59698e-06
-6.77124e-08
1.60815e-06
-9.92896e-08
1.62271e-06
2.355e-07
1.61984e-06
2.59576e-07
1.61554e-06
2.43321e-07
1.60208e-06
1.78341e-07
1.59199e-06
8.74594e-08
1.57719e-06
4.62773e-08
1.56497e-06
-5.86062e-08
1.5595e-06
5.83622e-08
-7.50458e-08
1.53369e-06
1.60887e-06
-3.76769e-07
1.61725e-06
-3.92511e-07
1.63373e-06
-3.98357e-07
1.64845e-06
5.61322e-07
1.64404e-06
3.9741e-08
1.63456e-06
3.57393e-07
1.61143e-06
-7.39875e-07
1.62292e-06
-1.67777e-07
1.62956e-06
-5.30389e-07
1.65521e-06
-9.33661e-08
1.66671e-06
-1.10788e-07
1.68375e-06
2.18466e-07
1.6832e-06
2.60124e-07
1.68039e-06
2.46132e-07
1.66788e-06
1.90851e-07
1.65822e-06
9.71206e-08
1.64464e-06
5.98508e-08
1.63129e-06
-4.52507e-08
1.62715e-06
6.24958e-08
-4.9936e-08
1.60204e-06
1.68753e-06
-3.66727e-07
1.69087e-06
-3.95845e-07
1.70415e-06
-4.11638e-07
1.71928e-06
5.46191e-07
1.71747e-06
4.15503e-08
1.71087e-06
3.63994e-07
1.68743e-06
-7.16435e-07
1.69513e-06
-1.75481e-07
1.69638e-06
-5.31631e-07
1.71791e-06
-1.14905e-07
1.72752e-06
-1.20392e-07
1.74542e-06
2.00563e-07
1.74647e-06
2.59072e-07
1.74567e-06
2.46938e-07
1.73519e-06
2.01325e-07
1.72708e-06
1.05234e-07
1.71589e-06
7.10434e-08
1.70225e-06
-3.16146e-08
1.69962e-06
6.51255e-08
-2.62051e-08
1.67589e-06
1.7706e-06
-3.58603e-07
1.76988e-06
-3.95122e-07
1.77825e-06
-4.20016e-07
1.79335e-06
5.31098e-07
1.7933e-06
4.15939e-08
1.79119e-06
3.66102e-07
1.76869e-06
-6.93926e-07
1.7736e-06
-1.80394e-07
1.76935e-06
-5.27379e-07
1.78601e-06
-1.31565e-07
1.79217e-06
-1.26554e-07
1.80946e-06
1.83278e-07
1.81159e-06
2.5694e-07
1.81313e-06
2.45393e-07
1.80553e-06
2.08928e-07
1.79957e-06
1.11195e-07
1.79144e-06
7.91742e-08
1.77813e-06
-1.83032e-08
1.77689e-06
6.63656e-08
-4.45303e-09
1.75513e-06
1.85736e-06
-3.52212e-07
1.85385e-06
-3.91611e-07
1.85691e-06
-4.2308e-07
1.87171e-06
5.16295e-07
1.8729e-06
4.04088e-08
1.87547e-06
3.63528e-07
1.85424e-06
-6.72696e-07
1.8575e-06
-1.83659e-07
1.84853e-06
-5.18407e-07
1.86044e-06
-1.43476e-07
1.86247e-06
-1.28584e-07
1.87821e-06
1.67537e-07
1.88106e-06
2.54098e-07
1.88497e-06
2.41481e-07
1.8806e-06
2.13292e-07
1.87678e-06
1.1502e-07
1.8718e-06
8.41554e-08
1.85911e-06
-5.62024e-09
1.85885e-06
6.66352e-08
1.48596e-08
1.83953e-06
1.94757e-06
-3.46944e-07
1.94243e-06
-3.86465e-07
1.94079e-06
-4.21448e-07
1.95531e-06
5.01781e-07
1.95733e-06
3.83922e-08
1.9639e-06
3.5695e-07
1.94368e-06
-6.52469e-07
1.94628e-06
-1.86259e-07
1.93374e-06
-5.05874e-07
1.94181e-06
-1.51538e-07
1.93987e-06
-1.26645e-07
1.95379e-06
1.53616e-07
1.95711e-06
2.5078e-07
1.96301e-06
2.35581e-07
1.96176e-06
2.14539e-07
1.95955e-06
1.17229e-07
1.9573e-06
8.64024e-08
1.94534e-06
6.33891e-09
1.94543e-06
6.6545e-08
3.14615e-08
1.92883e-06
2.04139e-06
-3.4215e-07
2.03551e-06
-3.80577e-07
2.03029e-06
-4.16235e-07
2.04472e-06
4.87352e-07
2.0472e-06
3.59155e-08
2.0568e-06
3.47349e-07
2.03703e-06
-6.32695e-07
2.03963e-06
-1.8886e-07
2.02466e-06
-4.90905e-07
2.03012e-06
-1.57004e-07
2.02498e-06
-1.215e-07
2.03729e-06
1.41303e-07
2.04098e-06
2.47096e-07
2.04821e-06
2.28347e-07
2.04961e-06
2.13135e-07
2.0483e-06
1.18543e-07
2.04806e-06
8.6645e-08
2.03686e-06
1.75398e-08
2.0367e-06
6.67005e-08
4.53134e-08
2.02285e-06
2.13918e-06
-3.37328e-07
2.13317e-06
-3.74565e-07
2.12548e-06
-4.08546e-07
2.14011e-06
4.72723e-07
2.14268e-06
3.33382e-08
2.15441e-06
3.3562e-07
2.13455e-06
-6.12831e-07
2.1375e-06
-1.91808e-07
2.12094e-06
-4.74344e-07
2.12498e-06
-1.61043e-07
2.11762e-06
-1.14146e-07
2.12875e-06
1.30179e-07
2.1328e-06
2.43039e-07
2.14064e-06
2.20506e-07
2.14411e-06
2.09668e-07
2.14307e-06
1.19588e-07
2.14401e-06
8.56999e-08
2.13362e-06
2.79334e-08
2.13278e-06
6.754e-08
5.6578e-08
2.12151e-06
2.24133e-06
-3.32168e-07
2.23559e-06
-3.68824e-07
2.22624e-06
-3.99198e-07
2.24132e-06
4.57639e-07
2.24369e-06
3.0969e-08
2.25691e-06
3.22398e-07
2.23657e-06
-5.92489e-07
2.23999e-06
-1.95226e-07
2.22237e-06
-4.56726e-07
2.22581e-06
-1.64485e-07
2.21717e-06
-1.055e-07
2.22748e-06
1.19869e-07
2.23201e-06
2.38511e-07
2.23983e-06
2.12679e-07
2.24482e-06
2.04684e-07
2.24368e-06
1.2073e-07
2.24505e-06
8.43235e-08
2.23558e-06
3.74052e-08
2.23385e-06
6.92741e-08
6.55782e-08
2.22485e-06
2.34821e-06
-3.26504e-07
2.34297e-06
-3.63583e-07
2.33244e-06
-3.88666e-07
2.34816e-06
4.41919e-07
2.35009e-06
2.90321e-08
2.36444e-06
3.08055e-07
2.34341e-06
-5.71465e-07
2.3473e-06
-1.99109e-07
2.32893e-06
-4.38354e-07
2.33221e-06
-1.67768e-07
2.32297e-06
-9.62627e-08
2.33267e-06
1.10165e-07
2.33782e-06
2.33365e-07
2.34521e-06
2.0529e-07
2.35126e-06
1.98631e-07
2.34994e-06
1.22048e-07
2.35114e-06
8.31282e-08
2.34273e-06
4.58176e-08
2.3401e-06
7.18953e-08
7.27342e-08
2.33295e-06
2.46015e-06
-3.20256e-07
2.45553e-06
-3.58967e-07
2.44402e-06
-3.77158e-07
2.46049e-06
4.25453e-07
2.46186e-06
2.76632e-08
2.47713e-06
2.92781e-07
2.45536e-06
-5.49694e-07
2.45965e-06
-2.03392e-07
2.44071e-06
-4.19418e-07
2.44397e-06
-1.71031e-07
2.43463e-06
-8.69164e-08
2.44376e-06
1.01036e-07
2.44967e-06
2.27453e-07
2.4564e-06
1.98563e-07
2.46316e-06
1.91866e-07
2.46177e-06
1.23442e-07
2.46237e-06
8.25279e-08
2.4551e-06
5.30839e-08
2.45176e-06
7.52311e-08
7.85021e-08
2.446e-06
2.57742e-06
-3.13385e-07
2.5735e-06
-3.55046e-07
2.56108e-06
-3.64736e-07
2.57835e-06
4.08182e-07
2.57909e-06
2.69276e-08
2.59519e-06
2.76677e-07
2.5727e-06
-5.27205e-07
2.57728e-06
-2.07975e-07
2.55794e-06
-4.00072e-07
2.56114e-06
-1.74228e-07
2.55202e-06
-7.77997e-08
2.56049e-06
9.25622e-08
2.56727e-06
2.20672e-07
2.5733e-06
1.92538e-07
2.58046e-06
1.84702e-07
2.57917e-06
1.24734e-07
2.57901e-06
8.26936e-08
2.57281e-06
5.92799e-08
2.56905e-06
7.89871e-08
8.3322e-08
2.56423e-06
2.70031e-06
-3.05865e-07
2.69713e-06
-3.51863e-07
2.68379e-06
-3.51405e-07
2.70189e-06
3.90082e-07
2.70198e-06
2.68419e-08
2.71884e-06
2.59819e-07
2.69571e-06
-5.0408e-07
2.70047e-06
-2.12732e-07
2.68088e-06
-3.8048e-07
2.68386e-06
-1.77208e-07
2.67523e-06
-6.91737e-08
2.68293e-06
8.48617e-08
2.69061e-06
2.12995e-07
2.69601e-06
1.87133e-07
2.7033e-06
1.77419e-07
2.70227e-06
1.25757e-07
2.70137e-06
8.35973e-08
2.69604e-06
6.46102e-08
2.6922e-06
8.28297e-08
8.75573e-08
2.68796e-06
2.82908e-06
-2.97678e-07
2.82667e-06
-3.49447e-07
2.81242e-06
-3.37158e-07
2.83134e-06
3.71161e-07
2.83079e-06
2.7388e-08
2.84832e-06
2.42297e-07
2.82468e-06
-4.80447e-07
2.82946e-06
-2.17511e-07
2.80981e-06
-3.60827e-07
2.81239e-06
-1.79789e-07
2.80446e-06
-6.1243e-08
2.81129e-06
7.80273e-08
2.8198e-06
2.04493e-07
2.82474e-06
1.82187e-07
2.83191e-06
1.70252e-07
2.83125e-06
1.26414e-07
2.82973e-06
8.51152e-08
2.82506e-06
6.92842e-08
2.82141e-06
8.64797e-08
9.1443e-08
2.81752e-06
2.96403e-06
-2.88809e-07
2.9624e-06
-3.47817e-07
2.94724e-06
-3.22004e-07
2.96695e-06
3.51454e-07
2.96582e-06
2.8518e-08
2.98389e-06
2.24224e-07
2.95991e-06
-4.5647e-07
2.96454e-06
-2.22135e-07
2.94504e-06
-3.41327e-07
2.94702e-06
-1.81775e-07
2.93994e-06
-5.4162e-08
2.94588e-06
7.20926e-08
2.95506e-06
1.95315e-07
2.95972e-06
1.77523e-07
2.9666e-06
1.63376e-07
2.96633e-06
1.26683e-07
2.96435e-06
8.70871e-08
2.96018e-06
7.34593e-08
2.95691e-06
8.97519e-08
9.50772e-08
2.95327e-06
3.10545e-06
-2.79248e-07
3.10461e-06
-3.46979e-07
3.08858e-06
-3.05973e-07
3.109e-06
3.31033e-07
3.10736e-06
3.01545e-08
3.12584e-06
2.0575e-07
3.10172e-06
-4.32354e-07
3.10598e-06
-2.26397e-07
3.08687e-06
-3.2221e-07
3.08808e-06
-1.82991e-07
3.08193e-06
-4.80145e-08
3.08702e-06
6.70085e-08
3.09666e-06
1.85668e-07
3.1012e-06
1.72984e-07
3.10767e-06
1.56911e-07
3.10776e-06
1.2659e-07
3.10548e-06
8.93639e-08
3.10172e-06
7.72227e-08
3.09892e-06
9.25568e-08
9.84442e-08
3.09555e-06
3.25365e-06
-2.68992e-07
3.25361e-06
-3.46931e-07
3.23675e-06
-2.89119e-07
3.25778e-06
3.10002e-07
3.25575e-06
3.21866e-08
3.27444e-06
1.87062e-07
3.25042e-06
-4.08335e-07
3.2541e-06
-2.30075e-07
3.2356e-06
-3.0371e-07
3.23591e-06
-1.83304e-07
3.2307e-06
-4.28063e-08
3.23505e-06
6.26636e-08
3.24495e-06
1.7577e-07
3.24947e-06
1.68465e-07
3.25545e-06
1.5093e-07
3.25587e-06
1.26165e-07
3.2534e-06
9.18369e-08
3.25001e-06
8.06075e-08
3.2477e-06
9.48729e-08
1.01457e-07
3.24469e-06
3.40898e-06
-2.58042e-07
3.4097e-06
-3.47655e-07
3.39212e-06
-2.7153e-07
3.41361e-06
2.88506e-07
3.41133e-06
3.44674e-08
3.43001e-06
1.68382e-07
3.40636e-06
-3.84681e-07
3.40922e-06
-2.32935e-07
3.39154e-06
-2.86036e-07
3.39088e-06
-1.82643e-07
3.38655e-06
-3.84763e-08
3.39029e-06
5.89254e-08
3.40025e-06
1.65807e-07
3.40479e-06
1.63924e-07
3.41025e-06
1.45474e-07
3.41102e-06
1.25397e-07
3.40841e-06
9.44402e-08
3.40538e-06
8.3644e-08
3.40355e-06
9.6705e-08
1.04006e-07
3.401e-06
3.57177e-06
-2.46405e-07
3.57324e-06
-3.49118e-07
3.55503e-06
-2.53324e-07
3.5768e-06
2.66736e-07
3.57445e-06
3.68154e-08
3.59287e-06
1.49965e-07
3.56987e-06
-3.61683e-07
3.57168e-06
-2.34744e-07
3.55499e-06
-2.69343e-07
3.55337e-06
-1.81019e-07
3.5498e-06
-3.49064e-08
3.55305e-06
5.56706e-08
3.56295e-06
1.55908e-07
3.56749e-06
1.5938e-07
3.57242e-06
1.40546e-07
3.57355e-06
1.24263e-07
3.57091e-06
9.70843e-08
3.56814e-06
8.64151e-08
3.56678e-06
9.80666e-08
1.05994e-07
3.56479e-06
3.7424e-06
-2.34097e-07
3.74455e-06
-3.5127e-07
3.72588e-06
-2.34655e-07
3.7477e-06
2.4492e-07
3.7455e-06
3.90163e-08
3.76337e-06
1.32093e-07
3.74133e-06
-3.39643e-07
3.74188e-06
-2.35293e-07
3.72625e-06
-2.53714e-07
3.72375e-06
-1.78521e-07
3.7208e-06
-3.19604e-08
3.72364e-06
5.2832e-08
3.73342e-06
1.46126e-07
3.73791e-06
1.54893e-07
3.74232e-06
1.36134e-07
3.74382e-06
1.2277e-07
3.74129e-06
9.96096e-08
3.73866e-06
8.90428e-08
3.73772e-06
9.90066e-08
1.07347e-07
3.73637e-06
3.92123e-06
-2.21142e-07
3.92401e-06
-3.54044e-07
3.90506e-06
-2.15712e-07
3.92665e-06
2.23331e-07
3.92484e-06
4.08281e-08
3.94187e-06
1.15066e-07
3.92108e-06
-3.18853e-07
3.92023e-06
-2.34441e-07
3.90565e-06
-2.39135e-07
3.90242e-06
-1.7529e-07
3.89997e-06
-2.952e-08
3.90239e-06
5.04149e-08
3.91205e-06
1.36466e-07
3.91646e-06
1.50486e-07
3.92031e-06
1.32283e-07
3.92214e-06
1.20937e-07
3.91995e-06
1.01806e-07
3.91737e-06
9.16189e-08
3.91674e-06
9.96386e-08
1.08024e-07
3.91606e-06
4.10868e-06
-2.07571e-07
4.11198e-06
-3.57348e-07
4.09299e-06
-1.96716e-07
4.11405e-06
2.02267e-07
4.11289e-06
4.19916e-08
4.12877e-06
9.91819e-08
4.10946e-06
-2.99539e-07
4.1072e-06
-2.32179e-07
4.09356e-06
-2.25495e-07
4.08974e-06
-1.71472e-07
4.08773e-06
-2.75109e-08
4.08967e-06
4.8472e-08
4.09919e-06
1.26946e-07
4.10354e-06
1.46135e-07
4.10678e-06
1.29046e-07
4.1089e-06
1.18816e-07
4.10723e-06
1.03476e-07
4.1047e-06
9.41492e-08
4.10422e-06
1.0012e-07
1.08058e-07
4.10419e-06
4.30516e-06
-1.93431e-07
4.30888e-06
-3.61069e-07
4.29008e-06
-1.77914e-07
4.3103e-06
1.8205e-07
4.31005e-06
4.22421e-08
4.32451e-06
8.47142e-08
4.3068e-06
-2.81828e-07
4.30326e-06
-2.2863e-07
4.29037e-06
-2.1261e-07
4.28611e-06
-1.67213e-07
4.28449e-06
-2.58883e-08
4.2859e-06
4.70644e-08
4.29522e-06
1.17622e-07
4.29959e-06
1.41761e-07
4.30219e-06
1.26454e-07
4.30451e-06
1.16494e-07
4.30349e-06
1.04494e-07
4.30111e-06
9.65309e-08
4.30063e-06
1.00597e-07
1.07579e-07
4.30111e-06
4.51112e-06
-1.78778e-07
4.51512e-06
-3.65067e-07
4.49678e-06
-1.59574e-07
4.51582e-06
1.63007e-07
4.51674e-06
4.13201e-08
4.52959e-06
7.18675e-08
4.51348e-06
-2.65714e-07
4.50887e-06
-2.24026e-07
4.49652e-06
-2.00254e-07
4.49195e-06
-1.62644e-07
4.49069e-06
-2.46261e-08
4.49151e-06
4.62352e-08
4.50052e-06
1.08619e-07
4.50506e-06
1.37218e-07
4.50702e-06
1.24497e-07
4.50941e-06
1.14105e-07
4.5091e-06
1.04798e-07
4.50703e-06
9.86047e-08
4.50648e-06
1.01146e-07
1.06793e-07
4.50727e-06
4.72702e-06
-1.6368e-07
4.73113e-06
-3.69181e-07
4.71353e-06
-1.41968e-07
4.73108e-06
1.45457e-07
4.73341e-06
3.89853e-08
4.74452e-06
6.07558e-08
4.72986e-06
-2.5105e-07
4.72451e-06
-2.18681e-07
4.71245e-06
-1.88195e-07
4.70766e-06
-1.57855e-07
4.70677e-06
-2.37318e-08
4.70698e-06
4.60284e-08
4.71554e-06
1.00055e-07
4.72043e-06
1.3233e-07
4.72178e-06
1.23146e-07
4.72407e-06
1.11815e-07
4.72447e-06
1.04395e-07
4.72288e-06
1.00195e-07
4.72228e-06
1.01749e-07
1.0591e-07
4.72316e-06
4.95334e-06
-1.4822e-07
4.95739e-06
-3.73228e-07
4.94079e-06
-1.25375e-07
4.95656e-06
1.2969e-07
4.9605e-06
3.50449e-08
4.96985e-06
5.1402e-08
4.95638e-06
-2.37581e-07
4.95065e-06
-2.12948e-07
4.93866e-06
-1.76207e-07
4.93372e-06
-1.52907e-07
4.9332e-06
-2.32122e-08
4.93276e-06
4.64608e-08
4.94075e-06
9.20665e-08
4.94615e-06
1.26935e-07
4.94701e-06
1.2228e-07
4.94901e-06
1.0982e-07
4.95004e-06
1.03364e-07
4.94909e-06
1.01149e-07
4.94853e-06
1.02303e-07
1.05075e-07
4.94937e-06
5.19059e-06
-1.32495e-07
5.19437e-06
-3.77004e-07
5.17905e-06
-1.10063e-07
5.19282e-06
1.15925e-07
5.19844e-06
2.9425e-08
5.20614e-06
4.37025e-08
5.19353e-06
-2.24971e-07
5.18776e-06
-2.07184e-07
5.17566e-06
-1.64102e-07
5.17056e-06
-1.4781e-07
5.17045e-06
-2.31021e-08
5.16941e-06
4.74984e-08
5.17659e-06
8.48908e-08
5.18264e-06
1.20886e-07
5.18332e-06
1.21601e-07
5.18477e-06
1.08368e-07
5.18629e-06
1.01847e-07
5.18608e-06
1.01359e-07
5.18573e-06
1.02654e-07
1.04336e-07
5.18647e-06
5.43931e-06
-1.16615e-07
5.44259e-06
-3.80283e-07
5.42881e-06
-9.62884e-08
5.44042e-06
1.04315e-07
5.44769e-06
2.21604e-08
5.45393e-06
3.74574e-08
5.44181e-06
-2.12842e-07
5.43634e-06
-2.01717e-07
5.42401e-06
-1.51769e-07
5.41864e-06
-1.42449e-07
5.41914e-06
-2.35966e-08
5.41745e-06
4.91891e-08
5.42355e-06
7.87925e-08
5.43034e-06
1.14094e-07
5.43122e-06
1.20722e-07
5.43197e-06
1.07618e-07
5.43374e-06
1.00076e-07
5.4343e-06
1.00796e-07
5.43431e-06
1.02641e-07
1.03621e-07
5.43503e-06
5.70005e-06
-1.00704e-07
5.70259e-06
-3.8283e-07
5.6906e-06
-8.429e-08
5.69996e-06
9.49469e-08
5.70874e-06
1.33873e-08
5.71381e-06
3.23844e-08
5.70176e-06
-2.00796e-07
5.69687e-06
-1.96824e-07
5.68434e-06
-1.39236e-07
5.67838e-06
-1.36491e-07
5.67975e-06
-2.49684e-08
5.67754e-06
5.13981e-08
5.68217e-06
7.41612e-08
5.68969e-06
1.06581e-07
5.69118e-06
1.19225e-07
5.69128e-06
1.07524e-07
5.69299e-06
9.83592e-08
5.69426e-06
9.95305e-08
5.69475e-06
1.02152e-07
1.02784e-07
5.69558e-06
5.97339e-06
-8.49024e-08
5.97495e-06
-3.8439e-07
5.96495e-06
-7.4291e-08
5.97203e-06
8.7869e-08
5.98211e-06
3.30642e-09
5.98636e-06
2.81322e-08
5.974e-06
-1.88431e-07
5.96986e-06
-1.92682e-07
5.95732e-06
-1.26702e-07
5.9503e-06
-1.29473e-07
5.95271e-06
-2.73689e-08
5.95045e-06
5.36496e-08
5.95326e-06
7.13589e-08
5.96111e-06
9.8723e-08
5.96367e-06
1.16668e-07
5.96336e-06
1.07838e-07
5.96471e-06
9.70052e-08
5.96652e-06
9.77215e-08
5.96753e-06
1.0114e-07
1.01675e-07
5.96864e-06
6.25995e-06
-6.93619e-08
6.26026e-06
-3.84698e-07
6.25246e-06
-6.64923e-08
6.25723e-06
8.30954e-08
6.26837e-06
-7.83721e-09
6.27222e-06
2.42863e-08
6.25913e-06
-1.7534e-07
6.25578e-06
-1.89335e-07
6.24368e-06
-1.14597e-07
6.23504e-06
-1.20836e-07
6.23844e-06
-3.07681e-08
6.23679e-06
5.53025e-08
6.23766e-06
7.04886e-08
6.24523e-06
9.11546e-08
6.24909e-06
1.128e-07
6.2488e-06
1.08137e-07
6.2496e-06
9.61982e-08
6.25173e-06
9.5598e-08
6.25325e-06
9.96177e-08
1.00201e-07
6.25472e-06
6.56036e-06
-5.42489e-08
6.55913e-06
-3.83476e-07
6.55371e-06
-6.10628e-08
6.55621e-06
8.05902e-08
6.5681e-06
-1.97272e-08
6.57204e-06
2.03439e-08
6.55786e-06
-1.6116e-07
6.55512e-06
-1.86589e-07
6.54409e-06
-1.03574e-07
6.53336e-06
-1.10103e-07
6.53735e-06
-3.47582e-08
6.5371e-06
5.55544e-08
6.53623e-06
7.13587e-08
6.54278e-06
8.46043e-08
6.54793e-06
1.07653e-07
6.54813e-06
1.07934e-07
6.54841e-06
9.59133e-08
6.55058e-06
9.34338e-08
6.55257e-06
9.76273e-08
9.83899e-08
6.55438e-06
6.87528e-06
-3.97424e-08
6.87224e-06
-3.80437e-07
6.86931e-06
-5.81319e-08
6.86967e-06
8.02375e-08
6.88187e-06
-3.19348e-08
6.88651e-06
1.57071e-08
6.87096e-06
-1.4561e-07
6.86838e-06
-1.84011e-07
6.85919e-06
-9.43781e-08
6.84629e-06
-9.72093e-08
6.84994e-06
-3.84048e-08
6.85177e-06
5.37198e-08
6.84983e-06
7.32988e-08
6.85466e-06
7.97749e-08
6.86071e-06
1.01604e-07
6.86188e-06
1.06768e-07
6.86184e-06
9.59523e-08
6.86379e-06
9.14787e-08
6.8662e-06
9.52249e-08
9.63533e-08
6.86823e-06
7.20542e-06
-2.60299e-08
7.20027e-06
-3.75285e-07
7.19993e-06
-5.77932e-08
7.19834e-06
8.18326e-08
7.21033e-06
-4.39258e-08
7.21627e-06
9.768e-09
7.19925e-06
-1.2859e-07
7.19623e-06
-1.80993e-07
7.18949e-06
-8.76351e-08
7.1749e-06
-8.26243e-08
7.17695e-06
-4.04495e-08
7.18115e-06
4.95156e-08
7.1791e-06
7.53499e-08
7.18189e-06
7.69865e-08
7.18818e-06
9.5315e-08
7.19056e-06
1.04382e-07
7.19053e-06
9.59815e-08
7.19215e-06
8.98653e-08
7.19483e-06
9.25404e-08
9.41523e-08
7.19703e-06
7.5515e-06
-1.33057e-08
7.54394e-06
-3.67727e-07
7.54624e-06
-6.00883e-08
7.54302e-06
8.50505e-08
7.55413e-06
-5.50305e-08
7.56193e-06
1.96273e-09
7.54366e-06
-1.10315e-07
7.53933e-06
-1.76663e-07
7.53552e-06
-8.38316e-08
7.52005e-06
-6.71531e-08
7.51948e-06
-3.98794e-08
7.52568e-06
4.33137e-08
7.52453e-06
7.65068e-08
7.52544e-06
7.60723e-08
7.53121e-06
8.95438e-08
7.53472e-06
1.00871e-07
7.53515e-06
9.55548e-08
7.53642e-06
8.85986e-08
7.53921e-06
8.97503e-08
9.17553e-08
7.5416e-06
7.91427e-06
-1.7635e-09
7.90403e-06
-3.57488e-07
7.90896e-06
-6.50224e-08
7.90458e-06
8.94354e-08
7.91397e-06
-6.44261e-08
7.92404e-06
-8.10487e-09
7.90514e-06
-9.14154e-08
7.89849e-06
-1.70008e-07
7.89762e-06
-8.29601e-08
7.88253e-06
-5.20621e-08
7.87875e-06
-3.61034e-08
7.88596e-06
3.61005e-08
7.88656e-06
7.5907e-08
7.8862e-06
7.6439e-08
7.89078e-06
8.49577e-08
7.89508e-06
9.65739e-08
7.89632e-06
9.43155e-08
7.89737e-06
8.75437e-08
7.90013e-06
8.69964e-08
8.91172e-08
7.90277e-06
8.29451e-06
8.40925e-09
8.28137e-06
-3.44353e-07
8.28884e-06
-7.24872e-08
8.28387e-06
9.4406e-08
8.2907e-06
-7.12544e-08
8.30316e-06
-2.05696e-08
8.28458e-06
-7.28378e-08
8.27477e-06
-1.60192e-07
8.27623e-06
-8.44205e-08
8.26292e-06
-3.87496e-08
8.25595e-06
-2.91418e-08
8.26291e-06
2.91403e-08
8.2657e-06
7.31177e-08
8.26485e-06
7.729e-08
8.26796e-06
8.1847e-08
8.27252e-06
9.20153e-08
8.27466e-06
9.2182e-08
8.27581e-06
8.6388e-08
8.27837e-06
8.44381e-08
8.61507e-08
8.28134e-06
8.69303e-06
1.70399e-08
8.6769e-06
-3.28219e-07
8.68661e-06
-8.21978e-08
8.68177e-06
9.92465e-08
8.68525e-06
-7.47395e-08
8.69988e-06
-3.52016e-08
8.68281e-06
-5.57604e-08
8.66941e-06
-1.46792e-07
8.67209e-06
-8.71023e-08
8.66169e-06
-2.83496e-08
8.65223e-06
-1.96866e-08
8.65769e-06
2.36829e-08
8.66249e-06
6.83185e-08
8.66206e-06
7.77212e-08
8.66381e-06
8.00983e-08
8.66805e-06
8.7772e-08
8.67092e-06
8.93173e-08
8.67248e-06
8.48205e-08
8.67482e-06
8.20983e-08
8.29277e-08
8.67805e-06
9.11067e-06
2.3988e-08
9.09158e-06
-3.09125e-07
9.10306e-06
-9.36784e-08
9.09917e-06
1.03133e-07
9.09877e-06
-7.43411e-08
9.11485e-06
-5.12767e-08
9.10063e-06
-4.15396e-08
9.08363e-06
-1.29791e-07
9.0861e-06
-8.95796e-08
9.07929e-06
-2.15392e-08
9.06853e-06
-8.9266e-09
9.07146e-06
2.07545e-08
9.07769e-06
6.20941e-08
9.07849e-06
7.69215e-08
9.07924e-06
7.93439e-08
9.08267e-06
8.43426e-08
9.08602e-06
8.59697e-08
9.08815e-06
8.2684e-08
9.09043e-06
7.98264e-08
7.96345e-08
9.09372e-06
9.54829e-06
2.91535e-08
9.52645e-06
-2.87276e-07
9.53904e-06
-1.0627e-07
9.53699e-06
1.0518e-07
9.53246e-06
-6.98077e-08
9.54886e-06
-6.76855e-08
9.53859e-06
-3.12618e-08
9.51868e-06
-1.09882e-07
9.51947e-06
-9.03737e-08
9.51623e-06
-1.82947e-08
9.50549e-06
1.807e-09
9.50558e-06
2.0667e-08
9.51227e-06
5.54024e-08
9.51472e-06
7.44694e-08
9.51511e-06
7.89632e-08
9.51758e-06
8.18708e-08
9.5209e-06
8.26491e-08
9.52363e-06
7.99552e-08
9.52602e-06
7.74369e-08
7.63553e-08
9.5293e-06
1.00068e-05
3.24898e-08
9.98256e-06
-2.6304e-07
9.99547e-06
-1.19175e-07
9.99605e-06
1.04596e-07
9.98753e-06
-6.12812e-08
1.00029e-05
-8.30912e-08
9.99722e-06
-2.5546e-08
9.97563e-06
-8.83007e-08
9.97351e-06
-8.82501e-08
9.97334e-06
-1.81281e-08
9.96376e-06
1.13876e-08
9.9613e-06
2.31314e-08
9.96734e-06
4.9359e-08
9.97146e-06
7.03523e-08
9.97223e-06
7.81912e-08
9.97385e-06
8.02558e-08
9.97671e-06
7.9788e-08
9.97979e-06
7.68746e-08
9.98255e-06
7.46785e-08
7.30879e-08
9.98581e-06
1.04871e-05
3.40212e-08
1.0461e-05
-2.36958e-07
1.04733e-05
-1.31497e-07
1.04771e-05
1.00802e-07
1.04652e-05
-4.93081e-08
1.04781e-05
-9.60385e-08
1.04771e-05
-2.4571e-08
1.04554e-05
-6.65477e-08
1.04498e-05
-8.26862e-08
1.04517e-05
-1.99624e-08
1.04441e-05
1.89261e-08
1.04396e-05
2.7607e-08
1.04442e-05
4.48097e-08
1.04496e-05
6.49893e-08
1.04514e-05
7.63785e-08
1.04525e-05
7.91318e-08
1.04547e-05
7.75929e-08
1.04578e-05
7.37489e-08
1.0461e-05
7.14707e-08
6.98467e-08
1.04643e-05
1.09902e-05
3.38394e-08
1.09629e-05
-2.09675e-07
1.09738e-05
-1.42346e-07
1.09811e-05
9.34905e-08
1.09665e-05
-3.47512e-08
1.09757e-05
-1.0523e-07
1.09791e-05
-2.79216e-08
1.09588e-05
-4.62973e-08
1.09498e-05
-7.36908e-08
1.09524e-05
-2.25538e-08
1.09474e-05
2.39316e-08
1.09417e-05
3.32724e-08
1.09442e-05
4.23561e-08
1.09501e-05
5.90833e-08
1.09533e-05
7.31888e-08
1.09544e-05
7.79696e-08
1.09561e-05
7.59516e-08
1.09588e-05
7.09915e-08
1.09624e-05
6.79219e-08
6.6456e-08
1.09658e-05
1.15171e-05
3.21159e-08
1.14894e-05
-1.81946e-07
1.14979e-05
-1.50882e-07
1.15087e-05
8.27197e-08
1.14927e-05
-1.88152e-08
1.14972e-05
-1.09745e-07
1.1504e-05
-3.46401e-08
1.14867e-05
-2.89844e-08
1.14747e-05
-6.17364e-08
1.1477e-05
-2.48157e-08
1.14746e-05
2.62885e-08
1.14686e-05
3.92948e-08
1.14688e-05
4.21466e-08
1.14744e-05
5.35174e-08
1.14789e-05
6.86576e-08
1.14807e-05
7.61936e-08
1.1482e-05
7.46339e-08
1.14841e-05
6.88846e-08
1.14876e-05
6.43831e-08
6.27984e-08
1.14913e-05
1.20688e-05
2.90915e-08
1.20414e-05
-1.5455e-07
1.2047e-05
-1.56406e-07
1.20608e-05
6.88843e-08
1.20449e-05
-2.87689e-09
1.20443e-05
-1.09128e-07
1.2053e-05
-4.34211e-08
1.20397e-05
-1.5692e-08
1.20256e-05
-4.76238e-08
1.20266e-05
-2.58124e-08
1.20267e-05
2.62081e-08
1.20212e-05
4.47678e-08
1.20195e-05
4.39086e-08
1.20238e-05
4.92165e-08
1.20293e-05
6.31474e-08
1.20321e-05
7.33379e-08
1.20334e-05
7.33874e-08
1.2035e-05
6.72967e-08
1.2038e-05
6.1387e-08
5.89296e-08
1.20418e-05
1.26466e-05
2.50642e-08
1.26203e-05
-1.28261e-07
1.26223e-05
-1.58406e-07
1.26385e-05
5.26725e-08
1.2624e-05
1.16946e-08
1.26183e-05
-1.03448e-07
1.26277e-05
-5.28184e-08
1.26189e-05
-6.88131e-09
1.26037e-05
-3.24314e-08
1.26028e-05
-2.49213e-08
1.26049e-05
2.40858e-08
1.26008e-05
4.8931e-08
1.25975e-05
4.71517e-08
1.26e-05
4.67106e-08
1.26058e-05
5.73222e-08
1.261e-05
6.92011e-08
1.26116e-05
7.17763e-08
1.26128e-05
6.60935e-08
1.26151e-05
5.90852e-08
5.52386e-08
1.26188e-05
1.32516e-05
2.03858e-08
1.32272e-05
-1.03821e-07
1.32254e-05
-1.56604e-07
1.32431e-05
3.49615e-08
1.3231e-05
2.3737e-08
1.3221e-05
-9.34043e-08
1.32294e-05
-6.12081e-08
1.3225e-05
-2.52804e-09
1.321e-05
-1.74171e-08
1.32068e-05
-2.17342e-08
1.32104e-05
2.04969e-08
1.32081e-05
5.12068e-08
1.32041e-05
5.11606e-08
1.32047e-05
4.60988e-08
1.32101e-05
5.19875e-08
1.32153e-05
6.39431e-08
1.3218e-05
6.91499e-08
1.3219e-05
6.51028e-08
1.32207e-05
5.73502e-08
5.21003e-08
1.32238e-05
1.38851e-05
1.54176e-08
1.38632e-05
-8.18514e-08
1.38575e-05
-1.50977e-07
1.38758e-05
1.67111e-08
1.38671e-05
3.23802e-08
1.38537e-05
-7.99418e-08
1.38597e-05
-6.72484e-08
1.38593e-05
-2.13161e-09
1.38457e-05
-3.83762e-09
1.38402e-05
-1.61577e-08
1.38444e-05
1.62813e-08
1.38445e-05
5.10689e-08
1.38405e-05
5.51975e-08
1.38395e-05
4.70688e-08
1.38436e-05
4.79176e-08
1.38495e-05
5.80023e-08
1.38535e-05
6.51456e-08
1.3855e-05
6.36212e-08
1.38563e-05
5.60858e-08
4.97171e-08
1.38587e-05
1.45486e-05
1.04995e-08
1.45295e-05
-6.2781e-08
1.45204e-05
-1.41894e-07
1.45381e-05
-9.79558e-10
1.45333e-05
3.71874e-08
1.45177e-05
-6.43688e-08
1.45204e-05
-6.99581e-08
1.45231e-05
-4.78581e-09
1.4512e-05
7.22756e-09
1.45044e-05
-8.53347e-09
1.45082e-05
1.2488e-08
1.45108e-05
4.84496e-08
1.45078e-05
5.82199e-08
1.45056e-05
4.93131e-08
1.45081e-05
4.53643e-08
1.4514e-05
5.21123e-08
1.45192e-05
5.99917e-08
1.45217e-05
6.11252e-08
1.45228e-05
5.49284e-08
4.78948e-08
1.45246e-05
1.52435e-05
5.9306e-09
1.52275e-05
-4.68594e-08
1.52156e-05
-1.29996e-07
1.52317e-05
-1.70297e-08
1.52307e-05
3.81246e-08
1.52144e-05
-4.80523e-08
1.52134e-05
-6.89485e-08
1.52179e-05
-9.28404e-09
1.52101e-05
1.50693e-08
1.52012e-05
3.84637e-10
1.52035e-05
1.01707e-08
1.52081e-05
4.37788e-08
1.52071e-05
5.92416e-08
1.52041e-05
5.22895e-08
1.52052e-05
4.42783e-08
1.52104e-05
4.69726e-08
1.52162e-05
5.41759e-08
1.522e-05
5.72972e-08
1.52214e-05
5.3534e-08
4.65104e-08
1.52228e-05
1.59713e-05
1.94244e-09
1.59586e-05
-3.41402e-08
1.59447e-05
-1.16096e-07
1.59582e-05
-3.05044e-08
1.59608e-05
3.55113e-08
1.59449e-05
-3.221e-08
1.59405e-05
-6.44874e-08
1.59455e-05
-1.43052e-08
1.5941e-05
1.96227e-08
1.5932e-05
9.35962e-09
1.5932e-05
1.01752e-08
1.5938e-05
3.77909e-08
1.59393e-05
5.78669e-08
1.59367e-05
5.49468e-08
1.59363e-05
4.46383e-08
1.59403e-05
4.30308e-08
1.59463e-05
4.81228e-08
1.59511e-05
5.25327e-08
1.59533e-05
5.12825e-08
4.53641e-08
1.59545e-05
1.67338e-05
-1.30499e-09
1.67242e-05
-2.44685e-08
1.67092e-05
-1.01086e-07
1.67195e-05
-4.08012e-08
1.67249e-05
3.01059e-08
1.67107e-05
-1.79898e-08
1.67032e-05
-5.70625e-08
1.67077e-05
-1.88088e-08
1.67063e-05
2.10939e-08
1.66981e-05
1.74741e-08
1.6696e-05
1.2361e-08
1.67018e-05
3.19796e-08
1.67056e-05
5.40027e-08
1.67043e-05
5.62761e-08
1.67028e-05
4.61076e-08
1.67053e-05
4.05302e-08
1.67107e-05
4.27331e-08
1.67164e-05
4.68957e-08
1.67195e-05
4.80988e-08
4.39966e-08
1.67209e-05
1.75328e-05
-3.72076e-09
1.75259e-05
-1.75691e-08
1.75106e-05
-8.57803e-08
1.75175e-05
-4.76871e-08
1.75246e-05
2.29149e-08
1.75129e-05
-6.27475e-09
1.75033e-05
-4.74772e-08
1.75064e-05
-2.18786e-08
1.75076e-05
1.99401e-08
1.7501e-05
2.40672e-08
1.74973e-05
1.60037e-08
1.75016e-05
2.76774e-08
1.75074e-05
4.82882e-08
1.75082e-05
5.54698e-08
1.75063e-05
4.79296e-08
1.75073e-05
3.95492e-08
1.75114e-05
3.86743e-08
1.7517e-05
4.12374e-08
1.75214e-05
4.37235e-08
4.22604e-08
1.75231e-05
1.83699e-05
-5.28968e-09
1.83654e-05
-1.30376e-08
1.83505e-05
-7.09158e-08
1.8354e-05
-5.11341e-08
1.83621e-05
1.47669e-08
1.83532e-05
2.62634e-09
1.83425e-05
-3.67637e-08
1.83435e-05
-2.286e-08
1.83466e-05
1.68614e-08
1.83421e-05
2.84879e-08
1.83376e-05
2.05255e-08
1.83401e-05
2.52316e-08
1.83463e-05
4.20707e-08
1.83493e-05
5.24654e-08
1.83484e-05
4.88306e-08
1.83479e-05
4.0038e-08
1.83506e-05
3.59362e-08
1.83551e-05
3.68036e-08
1.836e-05
3.88056e-08
3.93168e-08
1.83629e-05
1.92472e-05
-6.06807e-09