/*--------------------------------*- C++ -*----------------------------------*\
| =========                 |                                                 |
| \\      /  F ield         | OpenFOAM: The Open Source CFD Toolbox           |
|  \\    /   O peration     | Version:  2106                                  |
|   \\  /    A nd           | Website:  www.openfoam.com                      |
|    \\/     M anipulation  |                                                 |
\*---------------------------------------------------------------------------*/
FoamFile
{
    version     2.0;
    format      ascii;
    arch        "LSB;label=32;scalar=64";
    class       volVectorField;
    location    "0.43";
    object      U;
}
// * * * * * * * * * * * * * * * * * * * * * * * * * * * * * * * * * * * * * //

dimensions      [0 1 -1 0 0 0 0];

internalField   nonuniform List<vector> 
9600
(
(0.839972 -0.00381307 0)
(1.16587 -0.00327146 0)
(0.870714 -0.00362981 0)
(1.15567 0.00714902 0)
(0.842188 -0.000791323 0)
(1.11962 0.00625996 0)
(0.892252 -0.012311 0)
(1.15296 -0.00100615 0)
(0.911294 -0.00813045 0)
(1.18221 0.00195427 0)
(0.941495 -0.00165459 0)
(1.18207 0.00671453 0)
(0.932244 0.00503528 0)
(1.15955 0.00688593 0)
(0.92893 0.00314288 0)
(1.14911 0.00266761 0)
(0.933357 -0.00118384 0)
(1.15228 -0.00356728 0)
(0.92162 -7.66904e-05 0)
(1.15487 -0.0109117 0)
(0.85315 -0.00392829 0)
(1.15319 -0.00334038 0)
(0.884329 -0.00374802 0)
(1.14575 0.00748123 0)
(0.866725 -0.000580531 0)
(1.10755 0.00592809 0)
(0.917264 -0.0129056 0)
(1.13731 -0.00111116 0)
(0.93859 -0.00869029 0)
(1.16445 0.00164493 0)
(0.972397 -0.00189254 0)
(1.1584 0.00696476 0)
(0.974154 0.00529441 0)
(1.12272 0.00709075 0)
(0.986147 0.00327791 0)
(1.09389 0.0025534 0)
(1.0082 -0.00104691 0)
(1.07098 -0.00380137 0)
(1.02287 0.00062167 0)
(1.0384 -0.0123629 0)
(0.875652 -0.00404095 0)
(1.1289 -0.00343243 0)
(0.908744 -0.00385549 0)
(1.12549 0.00780894 0)
(0.905789 -0.000382119 0)
(1.0872 0.00555522 0)
(0.947041 -0.0132817 0)
(1.10695 -0.00128294 0)
(0.974175 -0.009158 0)
(1.13081 0.00126057 0)
(1.01411 -0.00188411 0)
(1.12175 0.00708733 0)
(1.02316 0.00589512 0)
(1.08495 0.0069652 0)
(1.03124 0.00387285 0)
(1.0588 0.00214667 0)
(1.03904 -0.000539016 0)
(1.04199 -0.00395799 0)
(1.03768 0.00111157 0)
(1.02972 -0.0093933 0)
(0.903485 -0.00410449 0)
(1.09642 -0.0035753 0)
(0.93736 -0.0039534 0)
(1.09907 0.00791706 0)
(0.946432 -0.000143815 0)
(1.06492 0.00528177 0)
(0.971072 -0.0134516 0)
(1.07091 -0.00161078 0)
(1.00051 -0.00947564 0)
(1.09367 0.000736363 0)
(1.04216 -0.00178263 0)
(1.09062 0.0069711 0)
(1.05125 0.00645539 0)
(1.06552 0.00689579 0)
(1.04776 0.0043495 0)
(1.04733 0.00209871 0)
(1.04107 -9.13177e-05 0)
(1.03355 -0.00391959 0)
(1.03156 0.00164658 0)
(1.02437 -0.00800668 0)
(0.931919 -0.0041067 0)
(1.06218 -0.00376762 0)
(0.96291 -0.00407829 0)
(1.0724 0.00786413 0)
(0.978813 0.000107018 0)
(1.04645 0.00513749 0)
(0.985014 -0.0134266 0)
(1.03952 -0.0020108 0)
(1.01123 -0.0097499 0)
(1.0633 0.00010644 0)
(1.05053 -0.00180128 0)
(1.07048 0.0067702 0)
(1.05958 0.00683383 0)
(1.05773 0.00698934 0)
(1.04994 0.0047698 0)
(1.04231 0.00228198 0)
(1.03668 0.00039847 0)
(1.02663 -0.00365756 0)
(1.02414 0.00199015 0)
(1.01644 -0.00687979 0)
(0.956661 -0.00404945 0)
(1.0329 -0.00397317 0)
(0.980796 -0.00424257 0)
(1.0501 0.00773251 0)
(0.999122 0.000314437 0)
(1.03396 0.00513974 0)
(0.990878 -0.0132355 0)
(1.01781 -0.00239654 0)
(1.01047 -0.0100308 0)
(1.04176 -0.000542645 0)
(1.04595 -0.00195472 0)
(1.0571 0.00652712 0)
(1.0576 0.00706741 0)
(1.05264 0.00714938 0)
(1.04697 0.00520719 0)
(1.0376 0.00258776 0)
(1.03117 0.00095539 0)
(1.02037 -0.00326645 0)
(1.01691 0.00228687 0)
(1.00975 -0.00562618 0)
(0.975288 -0.00395063 0)
(1.01257 -0.00414902 0)
(0.990282 -0.00444094 0)
(1.03368 0.00756113 0)
(1.00871 0.000456076 0)
(1.02621 0.00525524 0)
(0.992994 -0.0129254 0)
(1.00532 -0.00272099 0)
(1.00504 -0.0102837 0)
(1.02663 -0.00117227 0)
(1.03595 -0.00219656 0)
(1.04585 0.00620356 0)
(1.05088 0.0071916 0)
(1.04654 0.00729726 0)
(1.04139 0.00566128 0)
(1.03225 0.00294846 0)
(1.02534 0.00153556 0)
(1.01506 -0.00277346 0)
(1.01066 0.00255527 0)
(1.00458 -0.00432452 0)
(0.987596 -0.00383582 0)
(1.0014 -0.00426904 0)
(0.993435 -0.00464984 0)
(1.02213 0.00737061 0)
(1.01114 0.000539296 0)
(1.02094 0.005414 0)
(0.994433 -0.0125478 0)
(0.999166 -0.00296739 0)
(0.999534 -0.010461 0)
(1.01532 -0.00175895 0)
(1.02472 -0.00247427 0)
(1.03462 0.00579456 0)
(1.04149 0.00723222 0)
(1.0386 0.00740585 0)
(1.03398 0.00609878 0)
(1.02613 0.00330886 0)
(1.01957 0.00209953 0)
(1.0105 -0.00221656 0)
(1.0058 0.00278435 0)
(1.00073 -0.00304657 0)
(0.994867 -0.00372748 0)
(0.996946 -0.0043281 0)
(0.993147 -0.00483411 0)
(1.01368 0.00717377 0)
(1.00979 0.000579624 0)
(1.01656 0.00554993 0)
(0.996201 -0.0121491 0)
(0.996562 -0.00313836 0)
(0.995686 -0.0105347 0)
(1.00652 -0.0022706 0)
(1.01405 -0.00273004 0)
(1.02324 0.00533915 0)
(1.03058 0.00721755 0)
(1.02926 0.00745963 0)
(1.02556 0.00648429 0)
(1.01961 0.0036291 0)
(1.01418 0.00259307 0)
(1.00666 -0.00162648 0)
(1.00224 0.00294103 0)
(0.998092 -0.0018284 0)
(0.998806 -0.00363739 0)
(0.99616 -0.00433588 0)
(0.991688 -0.00496514 0)
(1.00705 0.00697702 0)
(1.007 0.000590131 0)
(1.01257 0.00562298 0)
(0.998108 -0.0117607 0)
(0.995619 -0.00324833 0)
(0.993619 -0.0104966 0)
(0.999847 -0.00268032 0)
(1.00488 -0.00291722 0)
(1.01245 0.00488317 0)
(1.01948 0.00716946 0)
(1.01965 0.00744581 0)
(1.01722 0.00678556 0)
(1.01338 0.00388365 0)
(1.00949 0.00296456 0)
(1.00357 -0.00103664 0)
(0.999776 0.00301942 0)
(0.996449 -0.000696794 0)
(1.00082 -0.00356645 0)
(0.996735 -0.00430796 0)
(0.990274 -0.00503177 0)
(1.00179 0.00678327 0)
(1.00413 0.000580047 0)
(1.00911 0.0056194 0)
(0.999726 -0.0113962 0)
(0.995321 -0.00331796 0)
(0.992842 -0.0103569 0)
(0.995171 -0.00298143 0)
(0.997755 -0.00301063 0)
(1.00327 0.00445924 0)
(1.00961 0.00710031 0)
(1.01105 0.00735977 0)
(1.00998 0.00698175 0)
(1.0081 0.00405751 0)
(1.00576 0.00320623 0)
(1.00126 -0.000475839 0)
(0.998158 0.00304894 0)
(0.995524 0.000325017 0)
(1.00182 -0.0035101 0)
(0.997469 -0.00425717 0)
(0.989317 -0.00503681 0)
(0.99787 0.00659394 0)
(1.00183 0.000555952 0)
(1.00642 0.0055453 0)
(1.00083 -0.0110543 0)
(0.995225 -0.00336727 0)
(0.992783 -0.0101372 0)
(0.992273 -0.00319088 0)
(0.99285 -0.00300605 0)
(0.9964 0.00408037 0)
(1.00195 0.0070174 0)
(1.00435 0.0072067 0)
(1.00448 0.00706911 0)
(1.00415 0.00416418 0)
(1.00306 0.00333491 0)
(0.999675 3.8855e-05 0)
(0.997169 0.00304671 0)
(0.995076 0.00123398 0)
(1.00228 -0.00346159 0)
(0.997963 -0.00419387 0)
(0.988821 -0.00499225 0)
(0.995264 0.00640739 0)
(1.00028 0.000523095 0)
(1.00459 0.00541608 0)
(1.00144 -0.0107256 0)
(0.995188 -0.00341192 0)
(0.993007 -0.0098612 0)
(0.990753 -0.00333212 0)
(0.989923 -0.00291532 0)
(0.991961 0.0037459 0)
(0.996807 0.00692329 0)
(0.99982 0.00700283 0)
(1.00081 0.00706018 0)
(1.00154 0.00422921 0)
(1.00131 0.00337437 0)
(0.998696 0.000527329 0)
(0.996625 0.0030434 0)
(0.994926 0.00200569 0)
(1.00246 -0.0034146 0)
(0.998211 -0.00412688 0)
(0.988655 -0.00491288 0)
(0.993775 0.00621981 0)
(0.999395 0.000486578 0)
(1.00348 0.00524792 0)
(1.00169 -0.0103987 0)
(0.99518 -0.00346146 0)
(0.99327 -0.00954724 0)
(0.990143 -0.00343216 0)
(0.988467 -0.00276292 0)
(0.98954 0.00344704 0)
(0.993838 0.00681853 0)
(0.997168 0.00677204 0)
(0.998657 0.00697102 0)
(0.999999 0.00427454 0)
(1.00026 0.00334995 0)
(0.998152 0.000988845 0)
(0.996369 0.00306776 0)
(0.99495 0.00262145 0)
(1.00249 -0.0033652 0)
(0.998311 -0.0040616 0)
(0.988684 -0.00481021 0)
(0.993073 0.00602774 0)
(0.998966 0.000451325 0)
(1.00285 0.00505304 0)
(1.00174 -0.010065 0)
(0.995197 -0.00351917 0)
(0.993477 -0.00920889 0)
(0.990037 -0.00351105 0)
(0.987926 -0.00256999 0)
(0.988498 0.00317188 0)
(0.992396 0.00670104 0)
(0.995833 0.00653696 0)
(0.997538 0.00682011 0)
(0.999168 0.00431612 0)
(0.999687 0.00329496 0)
(0.997883 0.00140616 0)
(0.996287 0.0031352 0)
(0.995072 0.00310987 0)
(1.00245 -0.00331119 0)
(0.998349 -0.00400121 0)
(0.988812 -0.00469136 0)
(0.992832 0.00582826 0)
(0.998793 0.000421279 0)
(1.0025 0.00483904 0)
(1.00167 -0.00972009 0)
(0.995234 -0.00358606 0)
(0.993619 -0.00885201 0)
(0.990161 -0.00358451 0)
(0.987862 -0.0023562 0)
(0.988236 0.00291663 0)
(0.991843 0.00656432 0)
(0.995262 0.00631098 0)
(0.997013 0.00662991 0)
(0.998733 0.00436295 0)
(0.999369 0.00324005 0)
(0.997766 0.00178101 0)
(0.996297 0.0032471 0)
(0.995243 0.0034989 0)
(1.00239 -0.00325136 0)
(0.998367 -0.00394757 0)
(0.988981 -0.00456006 0)
(0.992813 0.00561951 0)
(0.998738 0.000397912 0)
(1.00226 0.00461096 0)
(1.00156 -0.00936233 0)
(0.995281 -0.00366148 0)
(0.993716 -0.00848064 0)
(0.990369 -0.00365811 0)
(0.988004 -0.0021363 0)
(0.988341 0.00267848 0)
(0.991723 0.00640713 0)
(0.995062 0.00610118 0)
(0.996776 0.0064127 0)
(0.998486 0.00441438 0)
(0.999179 0.0032086 0)
(0.997727 0.00210435 0)
(0.996354 0.00339723 0)
(0.995437 0.0038203 0)
(1.00231 -0.00318549 0)
(0.998382 -0.00390085 0)
(0.989165 -0.00441737 0)
(0.992881 0.0054007 0)
(0.998731 0.000383207 0)
(1.00207 0.00436911 0)
(1.00144 -0.00899138 0)
(0.995334 -0.00374351 0)
(0.99379 -0.00810095 0)
(0.990599 -0.0037264 0)
(0.98822 -0.00192086 0)
(0.988589 0.00245615 0)
(0.991784 0.00622577 0)
(0.995011 0.00591474 0)
(0.996663 0.00617864 0)
(0.998318 0.00446001 0)
(0.999047 0.00320512 0)
(0.997727 0.00238279 0)
(0.996436 0.00357529 0)
(0.995641 0.0040915 0)
(1.00223 -0.00311325 0)
(0.998398 -0.00386175 0)
(0.989355 -0.00426347 0)
(0.992976 0.00517092 0)
(0.998739 0.000378562 0)
(1.00189 0.00411395 0)
(1.00131 -0.00860823 0)
(0.995391 -0.00383042 0)
(0.993853 -0.00771431 0)
(0.990832 -0.00379307 0)
(0.988457 -0.00171336 0)
(0.98888 0.00225408 0)
(0.991909 0.0060198 0)
(0.995009 0.00574647 0)
(0.996598 0.00593985 0)
(0.998182 0.00449357 0)
(0.998942 0.00322775 0)
(0.99775 0.00262124 0)
(0.996531 0.00375611 0)
(0.995847 0.00432041 0)
(1.00215 -0.00303423 0)
(0.998416 -0.00383137 0)
(0.989549 -0.00409879 0)
(0.993079 0.00493016 0)
(0.998752 0.000382458 0)
(1.00172 0.00384878 0)
(1.00118 -0.00821609 0)
(0.995453 -0.00391798 0)
(0.993913 -0.007324 0)
(0.991066 -0.00385645 0)
(0.988701 -0.00151957 0)
(0.98918 0.00207336 0)
(0.992058 0.00579195 0)
(0.995021 0.00559005 0)
(0.996551 0.00570452 0)
(0.998062 0.00451549 0)
(0.99885 0.00327818 0)
(0.997788 0.00282881 0)
(0.996636 0.00392714 0)
(0.99605 0.00452687 0)
(1.00207 -0.00294846 0)
(0.998437 -0.00380966 0)
(0.989744 -0.00392342 0)
(0.993185 0.00467893 0)
(0.998767 0.000394942 0)
(1.00155 0.00357448 0)
(1.00106 -0.00781771 0)
(0.99552 -0.00400383 0)
(0.993974 -0.00693493 0)
(0.991301 -0.00390512 0)
(0.98895 -0.00134691 0)
(0.989479 0.00191378 0)
(0.992218 0.00554351 0)
(0.995035 0.00544531 0)
(0.996514 0.00547861 0)
(0.997953 0.00452953 0)
(0.998768 0.00334905 0)
(0.997836 0.00301636 0)
(0.996749 0.00408782 0)
(0.996246 0.0047253 0)
(1.00199 -0.00285565 0)
(0.998462 -0.00379712 0)
(0.989943 -0.00373706 0)
(0.993291 0.00441792 0)
(0.998783 0.000414999 0)
(1.00139 0.00329284 0)
(1.00093 -0.00741402 0)
(0.995591 -0.00408628 0)
(0.994037 -0.00655178 0)
(0.991537 -0.00393679 0)
(0.989205 -0.00119545 0)
(0.989775 0.00177618 0)
(0.992386 0.00528127 0)
(0.995052 0.00530411 0)
(0.996484 0.00526101 0)
(0.997854 0.0045328 0)
(0.998692 0.0034323 0)
(0.997891 0.00319022 0)
(0.996869 0.00423499 0)
(0.996435 0.00491191 0)
(1.0019 -0.00275588 0)
(0.998491 -0.00379344 0)
(0.990145 -0.00354026 0)
(0.9934 0.00414794 0)
(0.9988 0.000440796 0)
(1.00123 0.00300582 0)
(1.00079 -0.00700884 0)
(0.995666 -0.0041598 0)
(0.994103 -0.00618204 0)
(0.991775 -0.00394857 0)
(0.989467 -0.00106546 0)
(0.990068 0.00165877 0)
(0.992562 0.00500955 0)
(0.995071 0.00516195 0)
(0.99646 0.00505592 0)
(0.997768 0.00452235 0)
(0.998623 0.00352332 0)
(0.997953 0.00334439 0)
(0.996996 0.00436142 0)
(0.996615 0.00508094 0)
(1.00182 -0.00264921 0)
(0.998525 -0.00379796 0)
(0.990351 -0.0033344 0)
(0.993511 0.00387072 0)
(0.998817 0.000471604 0)
(1.00107 0.00271722 0)
(1.00066 -0.00660959 0)
(0.995745 -0.00422001 0)
(0.994173 -0.00582799 0)
(0.992013 -0.00394029 0)
(0.989735 -0.000951177 0)
(0.990359 0.00155752 0)
(0.992747 0.00473789 0)
(0.995095 0.00502087 0)
(0.996443 0.0048653 0)
(0.997694 0.00450037 0)
(0.998561 0.00362351 0)
(0.998019 0.00347558 0)
(0.99713 0.00446244 0)
(0.996787 0.00522952 0)
(1.00173 -0.00253542 0)
(0.998563 -0.0038111 0)
(0.990561 -0.0031204 0)
(0.993624 0.00358967 0)
(0.998834 0.000504789 0)
(1.00092 0.00243197 0)
(1.00053 -0.00621999 0)
(0.995827 -0.00426232 0)
(0.994246 -0.00549188 0)
(0.992252 -0.0039128 0)
(0.990009 -0.000859556 0)
(0.990647 0.00146728 0)
(0.992938 0.0044691 0)
(0.995125 0.00488367 0)
(0.996433 0.00468933 0)
(0.997636 0.00446758 0)
(0.998506 0.00372954 0)
(0.998088 0.00358967 0)
(0.997273 0.00453575 0)
(0.996954 0.00535424 0)
(1.00164 -0.00241469 0)
(0.998608 -0.00383224 0)
(0.990775 -0.00289985 0)
(0.993741 0.00330626 0)
(0.998852 0.00053775 0)
(1.00077 0.00215199 0)
(1.0004 -0.0058436 0)
(0.995911 -0.00428111 0)
(0.994325 -0.00517374 0)
(0.992491 -0.00386977 0)
(0.990289 -0.000787549 0)
(0.990933 0.00138527 0)
(0.993137 0.00419677 0)
(0.995163 0.00474806 0)
(0.996428 0.00453412 0)
(0.997593 0.00442368 0)
(0.998458 0.00383284 0)
(0.998156 0.0036929 0)
(0.997422 0.0045788 0)
(0.99712 0.00544656 0)
(1.00155 -0.00228756 0)
(0.998657 -0.00386002 0)
(0.990995 -0.0026749 0)
(0.99386 0.00302364 0)
(0.99887 0.00056773 0)
(1.00062 0.00188309 0)
(1.00027 -0.00548683 0)
(0.995998 -0.00427403 0)
(0.994408 -0.00487749 0)
(0.99273 -0.0038065 0)
(0.990575 -0.00072367 0)
(0.991214 0.00131264 0)
(0.993344 0.00392575 0)
(0.995209 0.00461617 0)
(0.99643 0.00439639 0)
(0.997565 0.00436182 0)
(0.998418 0.0039347 0)
(0.998221 0.00379991 0)
(0.997577 0.00459322 0)
(0.99729 0.00549201 0)
(1.00146 -0.00215378 0)
(0.998712 -0.0038946 0)
(0.991219 -0.00244791 0)
(0.993982 0.0027467 0)
(0.99889 0.000590719 0)
(1.00049 0.00163146 0)
(1.00013 -0.00515331 0)
(0.996085 -0.00424174 0)
(0.994495 -0.00460305 0)
(0.99297 -0.00372693 0)
(0.990864 -0.000668745 0)
(0.991491 0.00125246 0)
(0.993557 0.0036563 0)
(0.995265 0.00448959 0)
(0.996434 0.00427941 0)
(0.997553 0.0042814 0)
(0.99839 0.00402653 0)
(0.998279 0.00392697 0)
(0.997729 0.00459747 0)
(0.997468 0.00548847 0)
(1.00137 -0.0020141 0)
(0.998772 -0.00393406 0)
(0.991448 -0.00222238 0)
(0.994107 0.00247887 0)
(0.998912 0.000601127 0)
(1.00035 0.00140045 0)
(1.00001 -0.00484784 0)
(0.996174 -0.0041852 0)
(0.994587 -0.00433995 0)
(0.99321 -0.00364325 0)
(0.991159 -0.000622992 0)
(0.991763 0.00120979 0)
(0.993777 0.00338714 0)
(0.995333 0.00435971 0)
(0.996441 0.004188 0)
(0.997554 0.00419297 0)
(0.998378 0.00408266 0)
(0.998332 0.00405941 0)
(0.997873 0.00461449 0)
(0.997649 0.00545179 0)
(1.00128 -0.00186917 0)
(0.998838 -0.00397663 0)
(0.991682 -0.00200127 0)
(0.994233 0.0022247 0)
(0.998937 0.000596449 0)
(1.00022 0.00119205 0)
(0.99988 -0.0045716 0)
(0.996264 -0.0041067 0)
(0.994682 -0.00408967 0)
(0.99345 -0.00354937 0)
(0.99146 -0.000587 0)
(0.992028 0.00118047 0)
(0.994001 0.00312974 0)
(0.995416 0.00422614 0)
(0.99645 0.00411699 0)
(0.997563 0.00410473 0)
(0.998383 0.00410252 0)
(0.998385 0.00417174 0)
(0.998005 0.0046489 0)
(0.997827 0.00540271 0)
(1.00119 -0.00171913 0)
(0.998911 -0.00402188 0)
(0.991922 -0.00178783 0)
(0.994361 0.00198744 0)
(0.998966 0.000574215 0)
(1.00009 0.00100908 0)
(0.999756 -0.0043202 0)
(0.996354 -0.00401344 0)
(0.994779 -0.00384884 0)
(0.99369 -0.00344811 0)
(0.991766 -0.000558956 0)
(0.992287 0.00116243 0)
(0.99423 0.00288346 0)
(0.995516 0.00409028 0)
(0.996462 0.00406803 0)
(0.997578 0.00401478 0)
(0.998404 0.00409587 0)
(0.998442 0.00425846 0)
(0.998126 0.00469294 0)
(0.997997 0.00535334 0)
(1.0011 -0.00156464 0)
(0.99899 -0.00406772 0)
(0.992168 -0.00158453 0)
(0.99449 0.00177043 0)
(0.998998 0.000529634 0)
(0.999967 0.00085452 0)
(0.999635 -0.00408908 0)
(0.996447 -0.00391169 0)
(0.994877 -0.00360968 0)
(0.993928 -0.00334675 0)
(0.992079 -0.000540578 0)
(0.992539 0.00116737 0)
(0.99446 0.00264242 0)
(0.995634 0.0039385 0)
(0.996477 0.0040429 0)
(0.997594 0.00392983 0)
(0.998441 0.00405839 0)
(0.998508 0.00431921 0)
(0.998238 0.00474121 0)
(0.998153 0.00531112 0)
(1.00101 -0.00140811 0)
(0.999075 -0.00410994 0)
(0.992421 -0.00139356 0)
(0.994617 0.00157976 0)
(0.999035 0.000460809 0)
(0.999851 0.000726002 0)
(0.999515 -0.00387503 0)
(0.996543 -0.00380652 0)
(0.994976 -0.00337003 0)
(0.994162 -0.00324629 0)
(0.9924 -0.000531908 0)
(0.992783 0.00119483 0)
(0.994687 0.00241816 0)
(0.995773 0.00376204 0)
(0.996497 0.00403475 0)
(0.997605 0.00386922 0)
(0.998491 0.00399023 0)
(0.998586 0.00434361 0)
(0.998343 0.00478329 0)
(0.998292 0.00528089 0)
(1.00092 -0.00124856 0)
(0.999167 -0.00414893 0)
(0.992682 -0.00122003 0)
(0.994742 0.00141675 0)
(0.999074 0.000369185 0)
(0.99974 0.000621377 0)
(0.999398 -0.00367132 0)
(0.996642 -0.00370402 0)
(0.995074 -0.00312682 0)
(0.994391 -0.00313921 0)
(0.992729 -0.00053497 0)
(0.99302 0.00124232 0)
(0.994907 0.00222837 0)
(0.995935 0.00355818 0)
(0.996528 0.00402649 0)
(0.997609 0.00384138 0)
(0.998547 0.00390346 0)
(0.99868 0.00432471 0)
(0.998449 0.00480365 0)
(0.998414 0.00526578 0)
(1.00083 -0.00108799 0)
(0.999264 -0.00418094 0)
(0.992952 -0.00106626 0)
(0.994865 0.0012801 0)
(0.999117 0.000255631 0)
(0.999637 0.00053458 0)
(0.999281 -0.00347268 0)
(0.996746 -0.00361148 0)
(0.995174 -0.00287161 0)
(0.994611 -0.00301915 0)
(0.993068 -0.000558257 0)
(0.993253 0.00130676 0)
(0.995113 0.00208219 0)
(0.996117 0.00331864 0)
(0.996577 0.0039952 0)
(0.997602 0.00385098 0)
(0.998602 0.00382133 0)
(0.998788 0.00426576 0)
(0.998563 0.00479185 0)
(0.998523 0.00525413 0)
(1.00074 -0.000929203 0)
(0.999366 -0.00420179 0)
(0.993231 -0.00093472 0)
(0.994984 0.00117421 0)
(0.999163 0.000120164 0)
(0.999543 0.0004651 0)
(0.999164 -0.00327165 0)
(0.996857 -0.00353134 0)
(0.995277 -0.0026144 0)
(0.994818 -0.00288147 0)
(0.993416 -0.000609442 0)
(0.993486 0.00137386 0)
(0.995299 0.0019883 0)
(0.996311 0.00306175 0)
(0.996652 0.00392122 0)
(0.997589 0.00388377 0)
(0.998645 0.00376452 0)
(0.998906 0.00417154 0)
(0.998689 0.00474077 0)
(0.998629 0.00521688 0)
(1.00066 -0.00077036 0)
(0.999472 -0.00421295 0)
(0.993522 -0.00082938 0)
(0.9951 0.00109863 0)
(0.999212 -3.21144e-05 0)
(0.999459 0.000407209 0)
(0.999044 -0.00305855 0)
(0.996973 -0.00346615 0)
(0.995384 -0.00236842 0)
(0.99501 -0.002712 0)
(0.993773 -0.000687116 0)
(0.993726 0.00143094 0)
(0.995462 0.00195526 0)
(0.99651 0.00281452 0)
(0.996758 0.00379711 0)
(0.997578 0.00391334 0)
(0.998671 0.00374352 0)
(0.999024 0.00406748 0)
(0.998827 0.00465706 0)
(0.998742 0.00514126 0)
(1.00057 -0.000616147 0)
(0.999582 -0.00420844 0)
(0.993823 -0.000749363 0)
(0.995211 0.00105143 0)
(0.999263 -0.000199886 0)
(0.999388 0.000346132 0)
(0.998921 -0.00282692 0)
(0.997093 -0.00342273 0)
(0.995502 -0.00213359 0)
(0.995182 -0.00249916 0)
(0.994133 -0.000781646 0)
(0.99398 0.0014554 0)
(0.995602 0.00198155 0)
(0.996702 0.00259959 0)
(0.996893 0.00362551 0)
(0.997579 0.00392082 0)
(0.998679 0.00374779 0)
(0.999132 0.00397505 0)
(0.998971 0.00455355 0)
(0.998864 0.00503302 0)
(1.00049 -0.000466658 0)
(0.999694 -0.00418644 0)
(0.994137 -0.000699313 0)
(0.995317 0.00103349 0)
(0.999314 -0.000374923 0)
(0.999334 0.000283052 0)
(0.998794 -0.00257346 0)
(0.997216 -0.00338836 0)
(0.995635 -0.00193176 0)
(0.995333 -0.00223368 0)
(0.994489 -0.000874569 0)
(0.994257 0.001425 0)
(0.995727 0.00204344 0)
(0.996876 0.00243469 0)
(0.997053 0.003414 0)
(0.997602 0.00389296 0)
(0.998674 0.00376625 0)
(0.999227 0.00389524 0)
(0.999113 0.00444051 0)
(0.998989 0.00491518 0)
(1.00041 -0.000324329 0)
(0.999806 -0.00414305 0)
(0.994464 -0.000679939 0)
(0.995418 0.00104406 0)
(0.999365 -0.00055078 0)
(0.999299 0.000204013 0)
(0.998661 -0.00229001 0)
(0.997336 -0.00334646 0)
(0.995788 -0.00178025 0)
(0.995467 -0.00192441 0)
(0.99483 -0.000946034 0)
(0.994558 0.00132603 0)
(0.995845 0.00211223 0)
(0.997023 0.00233668 0)
(0.997229 0.00318851 0)
(0.997654 0.00381641 0)
(0.998662 0.0037895 0)
(0.999302 0.00383364 0)
(0.999254 0.00431408 0)
(0.999111 0.00479491 0)
(1.00034 -0.000191135 0)
(0.999917 -0.00407489 0)
(0.994805 -0.000691623 0)
(0.995514 0.00108076 0)
(0.999412 -0.000720146 0)
(0.999289 9.74407e-05 0)
(0.998528 -0.00198016 0)
(0.997447 -0.00328496 0)
(0.995967 -0.00168056 0)
(0.995586 -0.00159248 0)
(0.995144 -0.000964894 0)
(0.994882 0.00116668 0)
(0.995973 0.00216074 0)
(0.997142 0.00231066 0)
(0.997407 0.00298194 0)
(0.997739 0.00368343 0)
(0.998654 0.0037905 0)
(0.999355 0.00380087 0)
(0.999388 0.00418289 0)
(0.99923 0.00466506 0)
(1.00027 -6.8158e-05 0)
(1.00003 -0.00397933 0)
(0.995159 -0.00073775 0)
(0.995607 0.00113602 0)
(0.999451 -0.000868689 0)
(0.999306 -3.68076e-05 0)
(0.998396 -0.00165883 0)
(0.997542 -0.00318594 0)
(0.99617 -0.00164297 0)
(0.995702 -0.00125705 0)
(0.995423 -0.000910295 0)
(0.995221 0.00097551 0)
(0.996123 0.00215918 0)
(0.997237 0.00233036 0)
(0.997572 0.00281893 0)
(0.997851 0.00351351 0)
(0.998666 0.0037482 0)
(0.99939 0.00378216 0)
(0.999506 0.00406972 0)
(0.999344 0.00452642 0)
(1.00021 3.9608e-05 0)
(1.00013 -0.00385124 0)
(0.995527 -0.000813742 0)
(0.9957 0.00120172 0)
(0.999479 -0.000986763 0)
(0.999351 -0.000214628 0)
(0.998272 -0.00133704 0)
(0.997615 -0.00303234 0)
(0.996398 -0.00166457 0)
(0.995825 -0.000949297 0)
(0.995659 -0.000776096 0)
(0.995563 0.000786152 0)
(0.996303 0.002096 0)
(0.99732 0.00236823 0)
(0.997715 0.00271062 0)
(0.997977 0.00333166 0)
(0.998701 0.00366019 0)
(0.99942 0.00374529 0)
(0.999606 0.0039784 0)
(0.999451 0.00438518 0)
(1.00015 0.00013384 0)
(1.00022 -0.00369101 0)
(0.995907 -0.000919548 0)
(0.995793 0.0012697 0)
(0.99949 -0.00106134 0)
(0.999425 -0.00043294 0)
(0.998165 -0.00103597 0)
(0.99766 -0.00280918 0)
(0.996643 -0.00171845 0)
(0.99597 -0.000697253 0)
(0.995857 -0.000572811 0)
(0.99589 0.000628182 0)
(0.996516 0.00196705 0)
(0.997406 0.00239531 0)
(0.997832 0.00266012 0)
(0.998105 0.00316642 0)
(0.998758 0.00353446 0)
(0.999454 0.00367713 0)
(0.999693 0.00389067 0)
(0.999551 0.00425461 0)
(1.0001 0.000213118 0)
(1.00031 -0.00349721 0)
(0.996297 -0.00105033 0)
(0.995893 0.00132935 0)
(0.999481 -0.00108023 0)
(0.999525 -0.000678748 0)
(0.998086 -0.000775295 0)
(0.997675 -0.00251638 0)
(0.996895 -0.00177747 0)
(0.996145 -0.000513558 0)
(0.996022 -0.000331407 0)
(0.996187 0.000525663 0)
(0.996756 0.00178738 0)
(0.997512 0.00238502 0)
(0.997928 0.00264923 0)
(0.99822 0.0030398 0)
(0.998829 0.00338587 0)
(0.999499 0.00357934 0)
(0.999777 0.00378416 0)
(0.99965 0.00412008 0)
(1.00006 0.000273427 0)
(1.00038 -0.00327061 0)
(0.996693 -0.00119691 0)
(0.996002 0.00136884 0)
(0.999449 -0.00103912 0)
(0.999646 -0.000937705 0)
(0.998043 -0.000573823 0)
(0.997661 -0.00216369 0)
(0.997142 -0.00181404 0)
(0.996356 -0.000411491 0)
(0.996168 -6.78458e-05 0)
(0.996442 0.000498093 0)
(0.997012 0.00158988 0)
(0.997649 0.00232348 0)
(0.998017 0.00264968 0)
(0.998314 0.00295569 0)
(0.998903 0.00324129 0)
(0.999552 0.00345403 0)
(0.999857 0.00366538 0)
(0.999754 0.00396438 0)
(1.00002 0.000315673 0)
(1.00044 -0.00301509 0)
(0.997092 -0.00135256 0)
(0.996126 0.00138098 0)
(0.99939 -0.000936081 0)
(0.99978 -0.00119015 0)
(0.998047 -0.000448883 0)
(0.997624 -0.00177299 0)
(0.997367 -0.0017993 0)
(0.996606 -0.00038646 0)
(0.99631 0.000183464 0)
(0.996649 0.000545663 0)
(0.997267 0.00140568 0)
(0.997821 0.00220334 0)
(0.998113 0.00264076 0)
(0.998389 0.00291069 0)
(0.998966 0.00312053 0)
(0.999612 0.00330381 0)
(0.999935 0.00353494 0)
(0.999863 0.00379326 0)
(0.999985 0.000339615 0)
(1.00048 -0.00273308 0)
(0.997489 -0.00150634 0)
(0.996271 0.00135021 0)
(0.999306 -0.000777987 0)
(0.999915 -0.00141293 0)
(0.998103 -0.000403836 0)
(0.997577 -0.00137219 0)
(0.99756 -0.00171619 0)
(0.996885 -0.000412695 0)
(0.996466 0.000388314 0)
(0.996811 0.0006534 0)
(0.9975 0.00126077 0)
(0.998024 0.00203151 0)
(0.998232 0.00259389 0)
(0.998451 0.0028932 0)
(0.999006 0.00303595 0)
(0.999668 0.00314873 0)
(1.00001 0.00337916 0)
(0.999969 0.003622 0)
(0.99996 0.000345269 0)
(1.0005 -0.00243612 0)
(0.997875 -0.00164531 0)
(0.996439 0.00127341 0)
(0.999201 -0.000581226 0)
(1.00004 -0.00158428 0)
(0.998213 -0.000433816 0)
(0.997532 -0.000988378 0)
(0.997712 -0.00156171 0)
(0.997184 -0.00046757 0)
(0.996647 0.000535048 0)
(0.996937 0.000798272 0)
(0.997695 0.00117135 0)
(0.998245 0.0018372 0)
(0.99839 0.00249337 0)
(0.998518 0.00287078 0)
(0.999019 0.00299538 0)
(0.999704 0.003018 0)
(1.00009 0.00319288 0)
(1.00007 0.0034469 0)
(0.999942 0.000334328 0)
(1.00051 -0.00212913 0)
(0.998247 -0.00176418 0)
(0.996634 0.00115238 0)
(0.99908 -0.00035986 0)
(1.00014 -0.00168843 0)
(0.998373 -0.000528434 0)
(0.997504 -0.000649256 0)
(0.997818 -0.00134081 0)
(0.997488 -0.000524828 0)
(0.996864 0.000615636 0)
(0.997042 0.000959348 0)
(0.997844 0.00114828 0)
(0.998465 0.00165103 0)
(0.998585 0.00234246 0)
(0.99861 0.00281437 0)
(0.999017 0.00297628 0)
(0.9997 0.0029376 0)
(1.00016 0.0030016 0)
(1.00017 0.00324666 0)
(0.99993 0.000309047 0)
(1.0005 -0.00182297 0)
(0.998594 -0.00184728 0)
(0.996857 0.000982867 0)
(0.998951 -0.000134695 0)
(1.00022 -0.00171266 0)
(0.998576 -0.000665819 0)
(0.99751 -0.000375525 0)
(0.997883 -0.00107211 0)
(0.99778 -0.000562008 0)
(0.997119 0.000632046 0)
(0.997143 0.00111133 0)
(0.997943 0.00119196 0)
(0.998663 0.00150168 0)
(0.998809 0.00214795 0)
(0.998739 0.0027204 0)
(0.99902 0.00294144 0)
(0.999655 0.00290389 0)
(1.00019 0.00285446 0)
(1.00027 0.00302445 0)
(0.999924 0.00027236 0)
(1.00047 -0.00152732 0)
(0.998913 -0.00189071 0)
(0.997106 0.00078123 0)
(0.998825 7.63079e-05 0)
(1.00025 -0.00165375 0)
(0.998807 -0.000824708 0)
(0.997559 -0.000182677 0)
(0.997913 -0.000774398 0)
(0.998043 -0.000565356 0)
(0.997408 0.000596117 0)
(0.99726 0.00123532 0)
(0.998001 0.00128186 0)
(0.998818 0.00141041 0)
(0.999049 0.00193414 0)
(0.998911 0.00257863 0)
(0.999048 0.00288393 0)
(0.999592 0.00287636 0)
(1.00016 0.00277008 0)
(1.00034 0.00282039 0)
(0.999923 0.000226778 0)
(1.00043 -0.00124548 0)
(0.999197 -0.00189183 0)
(0.997378 0.000556042 0)
(0.998712 0.00026325 0)
(1.00024 -0.00151972 0)
(0.999051 -0.000979949 0)
(0.997661 -6.94377e-05 0)
(0.997921 -0.000469272 0)
(0.998265 -0.00051768 0)
(0.997724 0.000513642 0)
(0.997407 0.00131958 0)
(0.998029 0.00139657 0)
(0.998918 0.00137803 0)
(0.999278 0.00174239 0)
(0.999128 0.00237643 0)
(0.999111 0.00279819 0)
(0.99953 0.00283668 0)
(1.00009 0.00271864 0)
(1.00036 0.00267413 0)
(0.999926 0.000177966 0)
(1.00037 -0.000992896 0)
(0.99944 -0.00184145 0)
(0.997667 0.00031889 0)
(0.998621 0.000411034 0)
(1.00019 -0.00132415 0)
(0.999292 -0.00110446 0)
(0.997816 -2.84158e-05 0)
(0.997922 -0.00019049 0)
(0.998435 -0.000416379 0)
(0.998052 0.0004069 0)
(0.997598 0.00133918 0)
(0.998045 0.00152232 0)
(0.998963 0.00140163 0)
(0.999469 0.00159468 0)
(0.999374 0.00214019 0)
(0.999229 0.0026536 0)
(0.999483 0.00278839 0)
(0.99999 0.00266721 0)
(1.00032 0.00257735 0)
(0.999932 0.000127268 0)
(1.00031 -0.000768943 0)
(0.999643 -0.00174967 0)
(0.997967 9.08937e-05 0)
(0.998562 0.000503547 0)
(1.00011 -0.00108924 0)
(0.999515 -0.0011752 0)
(0.998021 -5.57971e-05 0)
(0.997934 5.48762e-05 0)
(0.998552 -0.000268973 0)
(0.99837 0.000311431 0)
(0.99784 0.00128461 0)
(0.998073 0.00162634 0)
(0.998955 0.00147794 0)
(0.999603 0.00149614 0)
(0.99962 0.00191374 0)
(0.999407 0.00243824 0)
(0.999472 0.0027045 0)
(0.999882 0.00261627 0)
(1.00024 0.00249594 0)
(0.999942 7.9094e-05 0)
(1.00025 -0.000579119 0)
(0.999803 -0.00161836 0)
(0.998269 -0.000126427 0)
(0.998538 0.000541496 0)
(0.999993 -0.000840696 0)
(0.999704 -0.00118265 0)
(0.998267 -0.00013032 0)
(0.997974 0.000248314 0)
(0.998619 -8.74037e-05 0)
(0.998656 0.0002371 0)
(0.998124 0.00116908 0)
(0.998139 0.00167655 0)
(0.99891 0.00157965 0)
(0.999667 0.00145894 0)
(0.999833 0.00171872 0)
(0.999626 0.0021831 0)
(0.999527 0.0025514 0)
(0.999781 0.00256406 0)
(1.00013 0.00242254 0)
(0.999952 3.6724e-05 0)
(1.00019 -0.000426199 0)
(0.999921 -0.00145817 0)
(0.998561 -0.000321951 0)
(0.998554 0.000524694 0)
(0.999865 -0.000591657 0)
(0.999852 -0.00113085 0)
(0.998539 -0.000221575 0)
(0.998052 0.00036405 0)
(0.998646 0.000115993 0)
(0.998894 0.000214087 0)
(0.998439 0.00100826 0)
(0.99826 0.00166356 0)
(0.998856 0.0016702 0)
(0.999663 0.00147868 0)
(0.999986 0.00156964 0)
(0.999855 0.00193105 0)
(0.999655 0.00232189 0)
(0.999722 0.00247401 0)
(1.00002 0.00236063 0)
(0.999963 8.02877e-08 0)
(1.00013 -0.00030602 0)
(1 -0.0012827 0)
(0.998836 -0.000477753 0)
(0.998611 0.000461352 0)
(0.999735 -0.0003607 0)
(0.999952 -0.00102193 0)
(0.998818 -0.000314376 0)
(0.998177 0.000418685 0)
(0.998658 0.000309649 0)
(0.999064 0.00025624 0)
(0.998756 0.000847066 0)
(0.998444 0.00156292 0)
(0.99882 0.001735 0)
(0.999604 0.00152986 0)
(1.00007 0.00148153 0)
(1.00005 0.0017141 0)
(0.999835 0.00205432 0)
(0.99974 0.00231217 0)
(0.999917 0.00229502 0)
(0.999974 -2.89835e-05 0)
(1.00008 -0.00021825 0)
(1.00005 -0.00109855 0)
(0.999086 -0.000589666 0)
(0.998703 0.000368277 0)
(0.999617 -0.000166098 0)
(1 -0.000867056 0)
(0.999091 -0.000387729 0)
(0.998347 0.000415777 0)
(0.99867 0.000473075 0)
(0.999175 0.000333398 0)
(0.99904 0.00072761 0)
(0.998685 0.00139146 0)
(0.998836 0.00173469 0)
(0.999512 0.00159573 0)
(1.00007 0.00144611 0)
(1.00019 0.0015501 0)
(1.00002 0.00180408 0)
(0.999839 0.00208385 0)
(0.999873 0.00219083 0)
(0.999984 -4.88986e-05 0)
(1.00003 -0.000158637 0)
(1.00007 -0.000917318 0)
(0.999304 -0.00065489 0)
(0.998825 0.000257872 0)
(0.999521 -1.30287e-05 0)
(1.00001 -0.000690108 0)
(0.999336 -0.000421136 0)
(0.998558 0.000357762 0)
(0.998701 0.000595689 0)
(0.999235 0.000439335 0)
(0.999272 0.000650129 0)
(0.99895 0.00121413 0)
(0.998922 0.00164287 0)
(0.999425 0.00164631 0)
(1.00002 0.00145927 0)
(1.00026 0.00144358 0)
(1.00018 0.00160682 0)
(0.999988 0.00184071 0)
(0.999911 0.00202552 0)
(0.999992 -6.01999e-05 0)
(1 -0.00012262 0)
(1.00007 -0.000746275 0)
(0.999488 -0.000674696 0)
(0.998967 0.000141239 0)
(0.999452 9.6962e-05 0)
(0.99999 -0.000507547 0)