/*--------------------------------*- C++ -*----------------------------------*\
| =========                 |                                                 |
| \\      /  F ield         | OpenFOAM: The Open Source CFD Toolbox           |
|  \\    /   O peration     | Version:  2106                                  |
|   \\  /    A nd           | Website:  www.openfoam.com                      |
|    \\/     M anipulation  |                                                 |
\*---------------------------------------------------------------------------*/
FoamFile
{
    version     2.0;
    format      ascii;
    arch        "LSB;label=32;scalar=64";
    class       volScalarField;
    location    "0.545";
    object      p;
}
// * * * * * * * * * * * * * * * * * * * * * * * * * * * * * * * * * * * * * //

dimensions      [0 2 -2 0 0 0 0];

internalField   nonuniform List<scalar> 
9600
(
3.98775e-11
-0.000866256
0.00059171
0.000786623
-0.00114839
-0.00060185
-0.000368609
0.000414774
0.000349044
0.000283491
0.00107387
0.00111017
0.00226425
0.00250909
0.00333477
0.00499788
0.00278782
0.00345315
0.00385218
0.00669642
-9.35243e-08
-0.000866005
0.000591828
0.000779587
-0.00113665
-0.000606704
-0.000372984
0.000420555
0.000351581
0.000286168
0.00107645
0.00109961
0.00227048
0.00248537
0.00333875
0.00481781
0.00280352
0.00341816
0.00388421
0.00635763
-6.23693e-07
-0.000865713
0.000589996
0.000770747
-0.0011217
-0.000610898
-0.000374593
0.000428212
0.000352424
0.000289
0.0010783
0.00108253
0.00227206
0.00245266
0.0033395
0.00464952
0.00282381
0.00337954
0.00389416
0.0059563
-2.01142e-06
-0.000865519
0.000586582
0.000760112
-0.0011053
-0.000611753
-0.000374136
0.000433186
0.000350128
0.000291269
0.00108012
0.00105928
0.00226869
0.00241402
0.00333821
0.00448155
0.0028372
0.00334509
0.00387161
0.00558344
-4.34981e-06
-0.00086533
0.000581869
0.000747188
-0.00108669
-0.000610118
-0.000373322
0.00043519
0.0003454
0.000293272
0.00108215
0.00103135
0.00226497
0.00237045
0.0033359
0.00431358
0.00284736
0.00330986
0.00382165
0.00524839
-7.53821e-06
-0.000865102
0.000576085
0.000732358
-0.00106576
-0.000607028
-0.000373036
0.000435017
0.000339237
0.000295068
0.00108417
0.00100133
0.00226141
0.00232404
0.00333257
0.00414769
0.00285387
0.00327063
0.00374983
0.00494202
-1.13926e-05
-0.000864839
0.000569644
0.000716297
-0.00104306
-0.000603498
-0.000373499
0.000433366
0.000332384
0.000296585
0.00108617
0.000970474
0.00225727
0.00227632
0.00332608
0.00398584
0.00285164
0.00322934
0.00365764
0.00465293
-1.57076e-05
-0.000864577
0.00056298
0.000699572
-0.00101922
-0.000600153
-0.000374521
0.000430788
0.000325206
0.000297741
0.0010881
0.000939494
0.00225202
0.00222776
0.00331546
0.00382861
0.00283734
0.00318906
0.00354315
0.00437501
-2.03246e-05
-0.000864382
0.000556415
0.000682587
-0.000994665
-0.000597279
-0.000375767
0.000427662
0.000317774
0.000298414
0.00108981
0.000909127
0.00224493
0.00217901
0.00330014
0.00367642
0.00281014
0.00315051
0.0034054
0.00410556
-2.51654e-05
-0.00086433
0.00055014
0.000665585
-0.000969637
-0.000594948
-0.000376926
0.000424178
0.000310055
0.000298455
0.00109114
0.000879918
0.00223537
0.00213091
0.00327894
0.00353047
0.00276917
0.00311291
0.00324667
0.00384157
-3.02145e-05
-0.00086448
0.000544223
0.000648678
-0.000944247
-0.000593124
-0.000377817
0.000420412
0.000302016
0.000297748
0.00109197
0.000852085
0.00222295
0.00208423
0.00325052
0.003392
0.00271303
0.00307531
0.003071
0.00357818
-3.54835e-05
-0.000864862
0.000538637
0.000631893
-0.000918519
-0.000591759
-0.000378381
0.000416408
0.000293655
0.000296235
0.00109217
0.000825622
0.00220735
0.00203958
0.00321352
0.00326189
0.00264066
0.00303612
0.00288325
0.00331005
-4.09857e-05
-0.000865491
0.000533295
0.000615225
-0.00089245
-0.000590824
-0.000378635
0.000412219
0.000284976
0.000293911
0.00109155
0.000800439
0.00218813
0.00199743
0.00316666
0.00314053
0.00255173
0.00299256
0.00268893
0.0030333
-4.67262e-05
-0.000866381
0.000528089
0.000598663
-0.000866032
-0.000590295
-0.000378654
0.000407911
0.000275959
0.000290794
0.00108992
0.00077646
0.0021648
0.00195828
0.00310883
0.00302767
0.00244698
0.00294071
0.00249374
0.00274628
-5.26991e-05
-0.000867545
0.000522908
0.000582202
-0.000839269
-0.000590148
-0.000378546
0.00040356
0.000266561
0.000286941
0.00108703
0.000753705
0.00213683
0.00192255
0.0030393
0.00292226
0.00232843
0.00287613
0.00230275
0.00244933
-5.88871e-05
-0.000869009
0.000517647
0.000565848
-0.000812177
-0.000590356
-0.000378446
0.000399268
0.000256695
0.000282467
0.00108253
0.000732325
0.00210367
0.0018904
0.00295786
0.00282245
0.00219887
0.00279481
0.00211982
0.00214423
-6.52627e-05
-0.000870808
0.000512202
0.000549623
-0.000784794
-0.000590874
-0.00037852
0.000395181
0.000246222
0.000277491
0.00107611
0.000712449
0.002065
0.00186157
0.00286483
0.00272585
0.00206126
0.00269368
0.00194706
0.00183402
-7.17889e-05
-0.000872995
0.00050647
0.000533562
-0.000757185
-0.000591623
-0.000378949
0.000391471
0.000234981
0.000272098
0.00106758
0.000694118
0.0020206
0.00183537
0.00276118
0.00262987
0.00191808
0.00257082
0.00178508
0.00152288
-7.84172e-05
-0.000875635
0.000500349
0.000517726
-0.000729434
-0.000592505
-0.000379918
0.000388325
0.000222784
0.000266309
0.00105686
0.000677298
0.00197044
0.0018106
0.00264844
0.00253215
0.00177107
0.00242604
0.00163352
0.00121561
-8.5085e-05
-0.000878809
0.000493731
0.000502192
-0.000701636
-0.000593394
-0.000381656
0.000385975
0.00020944
0.00026008
0.00104393
0.000661748
0.00191468
0.00178605
0.00252813
0.00243068
0.00162164
0.00226027
0.00149079
0.000917284
-9.17155e-05
-0.000882608
0.000486495
0.000487056
-0.000673908
-0.000594109
-0.000384438
0.00038466
0.000194855
0.000253259
0.00102882
0.000646892
0.00185377
0.00176022
0.00240135
0.0023239
0.00147113
0.00207439
0.0013543
0.000633198
-9.82212e-05
-0.000887132
0.000478517
0.000472425
-0.000646384
-0.000594445
-0.000388559
0.000384604
0.000179019
0.000245476
0.00101194
0.000631839
0.00178867
0.00173262
0.00226825
0.00221062
0.00132097
0.00186948
0.00122094
0.000368451
-0.0001045
-0.000892492
0.000469653
0.000458442
-0.000619243
-0.000594151
-0.00039432
0.000385947
0.000161988
0.000236227
0.000993844
0.00061566
0.00172017
0.00170272
0.00212884
0.00208979
0.0011727
0.00164713
0.00108698
0.000127524
-0.000110434
-0.00089879
0.000459705
0.000445289
-0.00059268
-0.000592953
-0.00040201
0.000388741
0.000143959
0.000224826
0.000975181
0.000597424
0.00164834
0.0016704
0.00198309
0.00195984
0.00102847
0.00141009
0.000947662
-8.63968e-05
-0.000115896
-0.000906136
0.000448443
0.000433183
-0.000566883
-0.000590584
-0.000411854
0.000392912
0.00012539
0.000210373
0.000950398
0.000576392
0.00157256
0.0016361
0.0018311
0.00181822
0.000890577
0.00116284
0.000797561
-0.000272512
-0.000120748
-0.00091465
0.000435607
0.000422387
-0.000541529
-0.000586707
-0.000423985
0.000398117
0.000107124
0.0001918
0.000933524
0.000552761
0.00149156
0.00160038
0.00167401
0.00166207
0.000760084
0.00091124
0.000631503
-0.000432866
-0.000124844
-0.000924405
0.000420861
0.000413187
-0.000518068
-0.000581031
-0.000438405
0.000403837
9.01202e-05
0.000167797
0.000917986
0.000527343
0.00140383
0.00156334
0.0015138
0.00148893
0.00063601
0.000662313
0.000446369
-0.000572705
-0.000128046
-0.000935433
0.000403794
0.00040595
-0.000496561
-0.000573425
-0.000454863
0.0004093
7.5435e-05
0.000137287
0.000903627
0.000501888
0.0013073
0.00152363
0.0013539
0.00129791
0.000515174
0.000423283
0.000242453
-0.000700367
-0.000130216
-0.000947753
0.000383924
0.000401072
-0.0004772
-0.000563809
-0.000472854
0.000413335
6.46525e-05
9.97117e-05
0.000889061
0.000477899
0.0012
0.00147859
0.00119873
0.00109026
0.000392825
0.000200083
2.33454e-05
-0.000826347
-0.000131229
-0.00096132
0.000360673
0.000398949
-0.00046024
-0.000552177
-0.000491595
0.000414426
5.9278e-05
5.51405e-05
0.000871947
0.000439262
0.00108123
0.00142468
0.00105218
0.000868875
0.000263091
-3.93252e-06
-0.000204401
-0.000960982
-0.000130962
-0.000976019
0.000333304
0.000400034
-0.000445769
-0.000538779
-0.000510001
0.00041086
5.99507e-05
4.46218e-06
0.00084959
0.000423914
0.000952135
0.00135724
0.000916808
0.000638398
0.000120278
-0.000188874
-0.000432069
-0.00111097
-0.000129325
-0.00099164
0.00030099
0.000404662
-0.00043369
-0.000524204
-0.000526616
0.000400928
6.67514e-05
-5.05736e-05
0.000818673
0.000416204
0.000815062
0.00127208
0.000793265
0.000404957
-3.94768e-05
-0.000358095
-0.000650528
-0.0012768
-0.000126293
-0.00100787
0.000262917
0.000412955
-0.000423673
-0.000509335
-0.000539604
0.000383336
7.94354e-05
-0.000107584
0.000775636
0.000413989
0.000674328
0.00116656
0.000679908
0.000175306
-0.000217665
-0.000517535
-0.000852777
-0.00145201
-0.000121875
-0.0010243
0.000218239
0.00042484
-0.000415058
-0.00049542
-0.000547068
0.000357913
9.64766e-05
-0.000163796
0.000717851
0.000415133
0.000534915
0.00103992
0.000572997
-4.44043e-05
-0.00041266
-0.00067439
-0.00103639
-0.00162603
-0.000116137
-0.00104037
0.000166143
0.000440052
-0.000406878
-0.000484178
-0.000547435
0.000324874
0.000132833
-0.000216184
0.000644815
0.000414722
0.000401299
0.000893708
0.000468006
-0.000250162
-0.000620586
-0.000835106
-0.00120472
-0.00179027
-0.000109238
-0.00105545
0.000106024
0.00045799
-0.000397852
-0.000477603
-0.000539863
0.000285197
0.000145826
-0.00026262
0.000556802
0.000407413
0.000276311
0.000731688
0.000361153
-0.000440013
-0.000837368
-0.00100312
-0.00136288
-0.00194182
-0.000101441
-0.00106882
3.75885e-05
0.000477463
-0.000386351
-0.000477514
-0.000524268
0.000241503
0.000152144
-0.000302377
0.000457036
0.000389097
0.000160172
0.000557845
0.000249599
-0.000612593
-0.00105927
-0.00117962
-0.00151374
-0.0020826
-9.30869e-05
-0.00107969
-3.91879e-05
0.000496844
-0.000370563
-0.000485149
-0.000501657
0.000197211
0.000148711
-0.000336176
0.000349944
0.000357769
5.2408e-05
0.000375318
0.000130311
-0.000766752
-0.00128164
-0.00136691
-0.00165813
-0.00221433
-8.46134e-05
-0.00108724
-0.000123915
0.000514083
-0.000348801
-0.000500876
-0.000474744
0.000156111
0.000133829
-0.000366738
0.000239507
0.000312686
-4.77868e-05
0.000187471
-4.33087e-08
-0.000903209
-0.00149779
-0.00156787
-0.0017987
-0.00233563
-7.66252e-05
-0.0010906
-0.000215556
0.000526488
-0.000319797
-0.000524124
-0.000447292
0.000120565
0.000107577
-0.000398265
0.000128343
0.000255342
-0.000141709
-2.23947e-06
-0.000143403
-0.0010257
-0.00170036
-0.00178176
-0.00194143
-0.00244428
-6.98876e-05
-0.00108869
-0.000313051
0.000530821
-0.000282993
-0.000553382
-0.000423317
9.63324e-05
7.20927e-05
-0.000435154
1.65841e-05
0.00018836
-0.000230366
-0.000190891
-0.000299645
-0.00113956
-0.00188499
-0.00200324
-0.00209228
-0.00254089
-6.53414e-05
-0.00108044
-0.000413956
0.000523707
-0.000238754
-0.000586012
-0.000407217
8.44683e-05
3.14036e-05
-0.000480105
-9.67111e-05
0.000112597
-0.000313541
-0.000375017
-0.000467811
-0.00124992
-0.00205056
-0.00222571
-0.0022546
-0.00262929
-6.39851e-05
-0.00106532
-0.000515306
0.000502105
-0.00018837
-0.0006187
-0.00040247
8.0482e-05
-9.64456e-06
-0.000533472
-0.000213916
2.72631e-05
-0.000391794
-0.00055072
-0.00064611
-0.00136135
-0.00219691
-0.0024434
-0.00243035
-0.00271495
-6.65794e-05
-0.00104293
-0.000614136
0.00046397
-0.000134214
-0.000648042
-0.000411077
8.00069e-05
-4.64082e-05
-0.000593632
-0.000336264
-6.81435e-05
-0.000467307
-0.000715688
-0.000830668
-0.00147656
-0.00232463
-0.00265056
-0.00262091
-0.00280578
-7.36441e-05
-0.00101351
-0.00070753
0.00040792
-7.98064e-05
-0.00067086
-0.000433439
7.81345e-05
-7.66037e-05
-0.000657305
-0.00046422
-0.000173749
-0.000542585
-0.000869734
-0.00101733
-0.00159608
-0.00243573
-0.00284073
-0.00282381
-0.00291213
-8.55284e-05
-0.000977943
-0.000792895
0.000333725
-2.80858e-05
-0.000684714
-0.000468145
6.97439e-05
-0.000100389
-0.000719916
-0.000595352
-0.000288841
-0.000619687
-0.00101314
-0.0012034
-0.00172078
-0.0025337
-0.00300926
-0.00303041
-0.00304135
-0.000102371
-0.000937663
-0.000868074
0.000243169
1.49934e-05
-0.000688701
-0.000511763
5.21819e-05
-0.000120781
-0.000780501
-0.000726745
-0.000410819
-0.000699168
-0.00114744
-0.00138751
-0.00185132
-0.00262132
-0.00315424
-0.00322994
-0.00319318
-0.000124062
-0.000891776
-0.000931384
0.000139635
4.58418e-05
-0.000683888
-0.000561102
2.41245e-05
-0.000140341
-0.000838698
-0.000857829
-0.000536497
-0.000779583
-0.00127359
-0.00156999
-0.00198854
-0.00270095
-0.00327462
-0.00341342
-0.00335877
-0.000150427
-0.000850581
-0.000981519
2.75278e-05
6.0816e-05
-0.000673411
-0.000613478
-1.44482e-05
-0.000160299
-0.000895665
-0.000988046
-0.000664472
-0.00085706
-0.00138897
-0.00175152
-0.00213555
-0.00277691
-0.00336962
-0.00357469
-0.00352497
-0.000181167
-0.000811365
-0.00101778
-8.74271e-05
5.79085e-05
-0.000661462
-0.00066778
-6.22765e-05
-0.000181461
-0.000951905
-0.00111942
-0.000795101
-0.000928782
-0.00148907
-0.00192849
-0.00229634
-0.00285566
-0.00343979
-0.00370866
-0.0036807
-0.000215699
-0.00077588
-0.00104054
-0.000201735
3.59164e-05
-0.000651641
-0.000723473
-0.00011927
-0.000202541
-0.0010065
-0.0012555
-0.000929456
-0.000993912
-0.00156815
-0.00209367
-0.0024721
-0.00294705
-0.00349004
-0.00380975
-0.00381884
-0.000253276
-0.000745534
-0.00105159
-0.000312069
-4.01296e-06
-0.000647188
-0.000781123
-0.00018547
-0.000222835
-0.00105737
-0.00139885
-0.00107351
-0.00105374
-0.00162077
-0.0022385
-0.00265686
-0.00306144
-0.0035317
-0.00387388
-0.00393209
-0.000293193
-0.000721223
-0.00105369
-0.000415958
-5.86334e-05
-0.000650352
-0.000841954
-0.000261892
-0.000243715
-0.00109813
-0.00154665
-0.00123672
-0.00111363
-0.00164293
-0.00235133
-0.00283961
-0.00320301
-0.00358194
-0.0039052
-0.00400956
-0.00033478
-0.000703403
-0.00104988
-0.000512027
-0.000124325
-0.000662316
-0.000907131
-0.00035038
-0.000267248
-0.00112312
-0.00169395
-0.00142518
-0.00118736
-0.00163775
-0.00241897
-0.00300785
-0.00336662
-0.00365724
-0.00391852
-0.00404238
-0.000377374
-0.000692086
-0.00104323
-0.000599948
-0.00019745
-0.000682431
-0.000977473
-0.000453215
-0.000296719
-0.00112969
-0.001831
-0.00163831
-0.00129179
-0.00161478
-0.00243145
-0.00314254
-0.00353969
-0.0037652
-0.00393624
-0.00403621
-0.000420724
-0.000687059
-0.00103578
-0.000680853
-0.000275385
-0.000708386
-0.00105283
-0.000572078
-0.000338229
-0.00111915
-0.00194236
-0.00186969
-0.00144093
-0.00159302
-0.00239121
-0.00322234
-0.00370467
-0.00390263
-0.0039805
-0.00401124
-0.000464814
-0.000687766
-0.00102925
-0.000756555
-0.000356576
-0.0007379
-0.00113168
-0.00070713
-0.000397685
-0.00109605
-0.00201644
-0.00210507
-0.00164231
-0.00159891
-0.00230775
-0.00323304
-0.00383776
-0.00405445
-0.00406198
-0.00399703
-0.000509688
-0.00069369
-0.00102446
-0.00082876
-0.000440419
-0.000768879
-0.0012103
-0.000857633
-0.000480026
-0.001068
-0.00205097
-0.0023189
-0.00188666
-0.00166058
-0.00220211
-0.00316982
-0.00391598
-0.00420165
-0.00417677
-0.00402058
-0.000555493
-0.000704669
-0.00102123
-0.000898426
-0.000527998
-0.000800549
-0.00128319
-0.00102121
-0.000590765
-0.00104479
-0.00204831
-0.00249133
-0.00215543
-0.00179367
-0.00211447
-0.00304034
-0.00391865
-0.00432257
-0.00430949
-0.00409173
-0.00060232
-0.000720629
-0.0010197
-0.000965818
-0.000620763
-0.000833407
-0.00134568
-0.00119244
-0.000733048
-0.00103771
-0.00201322
-0.00261194
-0.00242005
-0.00198929
-0.00208419
-0.00287186
-0.00383237
-0.0043922
-0.00444462
-0.00420204
-0.000650185
-0.000741758
-0.00102003
-0.00103051
-0.000719733
-0.000869871
-0.00139471
-0.00136228
-0.00090573
-0.00105727
-0.00195697
-0.00267793
-0.00265297
-0.00222874
-0.00213133
-0.00271577
-0.00367025
-0.0043818
-0.00455883
-0.00433613
-0.000699036
-0.000768285
-0.00102267
-0.00109116
-0.000824737
-0.000914441
-0.00142985
-0.00151975
-0.00110436
-0.00111291
-0.00189399
-0.00269401
-0.00283726
-0.00248318
-0.00225278
-0.00261441
-0.00346865
-0.00428002
-0.00461897
-0.00447248
-0.000748637
-0.000800431
-0.00102845
-0.00114666
-0.000934243
-0.000971392
-0.00145371
-0.00165495
-0.00131956
-0.00121203
-0.0018392
-0.00266646
-0.00296754
-0.00272255
-0.00242964
-0.00258861
-0.00327803
-0.00410699
-0.00459445
-0.00457665
-0.000798792
-0.000838254
-0.00103869
-0.00119628
-0.00104593
-0.001043
-0.00147201
-0.00176294
-0.00153628
-0.00135384
-0.00181043
-0.00260681
-0.00304186
-0.00293032
-0.00263622
-0.00263555
-0.00313273
-0.00389731
-0.00448323
-0.00461346
-0.000849266
-0.000881584
-0.00105493
-0.00124016
-0.0011561
-0.00112941
-0.00149266
-0.00184342
-0.00173879
-0.00153016
-0.00182273
-0.0025352
-0.00306232
-0.00309375
-0.00284642
-0.00273855
-0.00304845
-0.00369043
-0.00430609
-0.00456655
-0.000899954
-0.000929909
-0.00107848
-0.00127926
-0.00126081
-0.00122822
-0.00152325
-0.0019004
-0.00191489
-0.00172796
-0.00188187
-0.00247408
-0.00303948
-0.00320127
-0.00303836
-0.002878
-0.00302468
-0.00351361
-0.00409379
-0.00444423
-0.000950885
-0.000982407
-0.00111017
-0.00131522
-0.00135714
-0.00133594
-0.00156835
-0.00194117
-0.00205825
-0.00192973
-0.0019844
-0.00243944
-0.00299203
-0.00325474
-0.00319088
-0.00303004
-0.003052
-0.00338156
-0.00387779
-0.00426557
-0.00100212
-0.00103804
-0.00115016
-0.00135028
-0.0014434
-0.00144784
-0.00162943
-0.00197567
-0.00216919
-0.00211808
-0.00212118
-0.00244258
-0.00293846
-0.00326464
-0.00329335
-0.00316789
-0.00311549
-0.0032993
-0.0036816
-0.00405606
-0.00105388
-0.00109556
-0.00119776
-0.00138707
-0.00151944
-0.00155852
-0.00170502
-0.00201279
-0.00225325
-0.00228104
-0.00227636
-0.00248823
-0.00289509
-0.00324304
-0.00335059
-0.00327318
-0.00319154
-0.00326132
-0.00351961
-0.00384106
-0.00110635
-0.00115391
-0.00125161
-0.00142764
-0.00158637
-0.00166329
-0.00179146
-0.00205782
-0.00231786
-0.00241459
-0.00243069
-0.00256902
-0.00287826
-0.00320408
-0.00336927
-0.00334258
-0.00325693
-0.00325208
-0.00339676
-0.00364148
-0.00115965
-0.0012122
-0.00130969
-0.00147322
-0.0016462
-0.00175871
-0.00188401
-0.00211308
-0.00237136
-0.00252064
-0.00257053
-0.00267016
-0.00289583
-0.00316625
-0.00335519
-0.00337838
-0.00330107
-0.00325264
-0.00330862
-0.00347238
-0.0012137
-0.00126981
-0.00136969
-0.00152382
-0.00170154
-0.00184307
-0.00197703
-0.00217827
-0.00242122
-0.0026035
-0.00268971
-0.0027746
-0.00294001
-0.00314641
-0.00332058
-0.00338151
-0.003323
-0.00325046
-0.00324593
-0.00334075
-0.00126805
-0.00132641
-0.00142946
-0.00157803
-0.001755
-0.00191679
-0.00206498
-0.00225001
-0.00247276
-0.00266863
-0.00278671
-0.00287017
-0.0029964
-0.00314909
-0.00328285
-0.00335549
-0.00332207
-0.00324242
-0.0032027
-0.00324765
-0.00132193
-0.00138164
-0.00148736
-0.00163377
-0.00180817
-0.00198181
-0.00214405
-0.00232307
-0.0025278
-0.00272278
-0.00286347
-0.00295265
-0.00305169
-0.00316565
-0.0032552
-0.00331191
-0.00329885
-0.00322854
-0.00317567
-0.00319128
-0.00137426
-0.00143493
-0.00154244
-0.0016887
-0.00186092
-0.00204012
-0.00221313
-0.00239224
-0.00258434
-0.00277103
-0.00292292
-0.00302195
-0.00310202
-0.0031863
-0.00324109
-0.00326692
-0.00325989
-0.00320723
-0.00315819
-0.00316325
-0.00142375
-0.00148533
-0.00159396
-0.00174072
-0.0019118
-0.0020934
-0.00227311
-0.00245403
-0.00263863
-0.00281525
-0.00296801
-0.00307686
-0.00314852
-0.0032094
-0.00324125
-0.00323693
-0.00321751
-0.00317691
-0.00313879
-0.00314445
-0.00146906
-0.00153161
-0.00164097
-0.00178816
-0.00195897
-0.00214168
-0.002325
-0.00250739
-0.00268783
-0.00285615
-0.00300204
-0.00311407
-0.00318498
-0.00323269
-0.00325612
-0.00323843
-0.00320209
-0.00315824
-0.0031208
-0.00312412
-0.00150872
-0.00157227
-0.00168223
-0.00182957
-0.0020005
-0.00218368
-0.00236863
-0.00255176
-0.00273012
-0.00289396
-0.00303289
-0.00313937
-0.00320376
-0.00323365
-0.00324407
-0.00322672
-0.00319455
-0.00316867
-0.00315915
-0.00318557
-0.00154155
-0.00160586
-0.00171608
-0.00186288
-0.00203358
-0.00221696
-0.0024021
-0.00258486
-0.00276118
-0.00292254
-0.0030583
-0.00316258
-0.00323026
-0.00325851
-0.00325872
-0.00323234
-0.00318467
-0.00313878
-0.0031158
-0.00313815
-0.00156761
-0.00163544
-0.00174847
-0.00189643
-0.00206789
-0.00225272
-0.00243904
-0.00262185
-0.00279675
-0.00295582
-0.00308859
-0.00318758
-0.00325124
-0.00327761
-0.00327423
-0.00324815
-0.00320464
-0.00316157
-0.00314221
-0.00316921
0.00932967
0.00419453
-0.00342602
-0.00897198
-0.0104257
-0.00947906
-0.00819773
-0.00734991
-0.00691972
-0.00679113
-0.00691688
-0.00708872
-0.00710069
-0.00703116
-0.0069887
-0.0069304
-0.00686618
-0.006857
-0.00686779
-0.00684564
-0.00681665
-0.00682907
-0.00688229
-0.00694308
-0.00700151
-0.00706385
-0.00712969
-0.00719969
-0.0072635
-0.00731093
-0.00735073
-0.00740392
-0.00748041
-0.00758309
-0.00771387
-0.00785779
-0.00800661
-0.00815415
-0.00826208
-0.00833854
-0.00842834
-0.00851576
-0.00859037
-0.00869106
-0.00881709
-0.00892197
-0.00900116
-0.00908979
-0.00919459
-0.00929339
-0.00938069
-0.00945338
-0.00952719
-0.00963084
-0.00973285
-0.00979484
-0.00985532
-0.00994335
-0.0100183
-0.0100741
-0.010139
-0.0102123
-0.0102759
-0.0103344
-0.0103964
-0.0104566
-0.0105169
-0.0105756
-0.010638
-0.0106969
-0.0107597
-0.0108258
-0.0108935
-0.0109597
-0.0110215
-0.0110866
-0.0111484
-0.0112156
-0.0112841
-0.0113567
-0.0114327
-0.0115062
-0.0115852
-0.0116603
-0.0117392
-0.0118184
-0.0118963
-0.0119804
-0.0120593
-0.0121461
-0.0122278
-0.0123159
-0.0123996
-0.0124864
-0.0125733
-0.0126511
-0.012724
-0.0127959
-0.0127916
-0.012747
0.00865953
0.00406913
-0.0033271
-0.0088381
-0.0103481
-0.00944091
-0.00817257
-0.00733114
-0.00690538
-0.00677963
-0.00690775
-0.00708168
-0.00709498
-0.00702624
-0.00698448
-0.00692659
-0.00686254
-0.00685363
-0.00686477
-0.00684284
-0.00681394
-0.00682648
-0.00687985
-0.00694079
-0.00699934
-0.00706179
-0.00712774
-0.00719785
-0.00726179
-0.00730934
-0.00734922
-0.00740249
-0.00747906
-0.00758181
-0.00771269
-0.00785671
-0.0080056
-0.00815323
-0.00826124
-0.00833773
-0.00842759
-0.00851509
-0.00858972
-0.00869043
-0.00881652
-0.00892146
-0.00900067
-0.00908933
-0.00919416
-0.009293
-0.00938033
-0.00945305
-0.00952688
-0.00963055
-0.00973261
-0.00979463
-0.00985511
-0.00994316
-0.0100182
-0.010074
-0.0101389
-0.0102122
-0.0102758
-0.0103343
-0.0103963
-0.0104565
-0.0105168
-0.0105756
-0.0106379
-0.0106969
-0.0107597
-0.0108257
-0.0108934
-0.0109597
-0.0110215
-0.0110866
-0.0111484
-0.0112155
-0.0112841
-0.0113566
-0.0114327
-0.0115062
-0.0115852
-0.0116603
-0.0117392
-0.0118184
-0.0118963
-0.0119804
-0.0120593
-0.0121461
-0.0122278
-0.0123159
-0.0123996
-0.0124864
-0.0125733
-0.0126511
-0.012724
-0.0127959
-0.0127916
-0.012747
0.00799725
0.00395343
-0.00310828
-0.00856782
-0.0102039
-0.00938728
-0.00814804
-0.0073131
-0.00689004
-0.00676654
-0.00689645
-0.00707208
-0.00708706
-0.00702002
-0.00697977
-0.00692277
-0.0068591
-0.0068505
-0.00686196
-0.00684025
-0.00681152
-0.00682421
-0.00687774
-0.0069388
-0.00699746
-0.00706001
-0.00712604
-0.00719624
-0.00726028
-0.00730792
-0.00734786
-0.00740119
-0.00747782
-0.00758064
-0.00771161
-0.00785574
-0.00800472
-0.00815245
-0.00826051
-0.008337
-0.00842691
-0.00851449
-0.00858913
-0.00868986
-0.00881601
-0.00892101
-0.00900024
-0.00908891
-0.00919378
-0.00929265
-0.00938002
-0.00945276
-0.00952659
-0.0096303
-0.0097324
-0.00979443
-0.00985492
-0.009943
-0.010018
-0.0100739
-0.0101388
-0.0102121
-0.0102757
-0.0103342
-0.0103962
-0.0104565
-0.0105167
-0.0105755
-0.0106379
-0.0106968
-0.0107596
-0.0108257
-0.0108934
-0.0109596
-0.0110215
-0.0110866
-0.0111484
-0.0112155
-0.0112841
-0.0113566
-0.0114327
-0.0115062
-0.0115852
-0.0116602
-0.0117391
-0.0118184
-0.0118963
-0.0119804
-0.0120593
-0.0121461
-0.0122278
-0.0123159
-0.0123996
-0.0124864
-0.0125733
-0.0126511
-0.012724
-0.0127959
-0.0127916
-0.0127469
0.0073795
0.00384927
-0.00282688
-0.00821765
-0.0100034
-0.00931299
-0.00811595
-0.00728861
-0.00686894
-0.00674946
-0.0068814
-0.00705778
-0.00707433
-0.00700993
-0.0069724
-0.0069174
-0.00685482
-0.00684672
-0.0068585
-0.0068372
-0.00680889
-0.00682183
-0.00687548
-0.00693668
-0.00699551
-0.00705824
-0.00712434
-0.00719459
-0.00725868
-0.00730638
-0.00734639
-0.00739977
-0.00747643
-0.0075793
-0.00771038
-0.00785467
-0.00800378
-0.00815161
-0.0082597
-0.00833616
-0.00842614
-0.00851381
-0.00858848
-0.00868923
-0.00881545
-0.0089205
-0.00899975
-0.00908845
-0.00919337
-0.00929227
-0.00937965
-0.00945242
-0.00952627
-0.00963
-0.00973217
-0.0097942
-0.00985468
-0.00994281
-0.0100179
-0.0100737
-0.0101386
-0.0102119
-0.0102756
-0.0103341
-0.0103962
-0.0104564
-0.0105167
-0.0105755
-0.0106378
-0.0106968
-0.0107596
-0.0108257
-0.0108934
-0.0109596
-0.0110215
-0.0110866
-0.0111483
-0.0112155
-0.0112841
-0.0113566
-0.0114327
-0.0115061
-0.0115851
-0.0116602
-0.0117391
-0.0118184
-0.0118963
-0.0119804
-0.0120593
-0.0121461
-0.0122278
-0.0123159
-0.0123996
-0.0124864
-0.0125733
-0.0126511
-0.012724
-0.0127959
-0.0127917
-0.0127468
0.00677847
0.00371816
-0.00254085
-0.00784512
-0.00978199
-0.00922981
-0.00808041
-0.00725946
-0.00684264
-0.00672831
-0.00686217
-0.00703801
-0.00705586
-0.00699486
-0.0069611
-0.00690939
-0.00684897
-0.00684166
-0.00685379
-0.00683324
-0.00680579
-0.00681913
-0.0068728
-0.00693407
-0.00699321
-0.00705628
-0.00712256
-0.00719282
-0.00725691
-0.00730468
-0.00734477
-0.00739816
-0.00747476
-0.00757759
-0.00770879
-0.00785331
-0.00800264
-0.00815058
-0.00825865
-0.00833506
-0.00842512
-0.00851294
-0.0085877
-0.00868848
-0.00881473
-0.00891981
-0.00899912
-0.0090879
-0.00919286
-0.00929175
-0.00937916
-0.00945198
-0.00952585
-0.00962962
-0.00973184
-0.00979389
-0.00985438
-0.00994255
-0.0100176
-0.0100735
-0.0101384
-0.0102118
-0.0102754
-0.010334
-0.010396
-0.0104563
-0.0105166
-0.0105754
-0.0106377
-0.0106967
-0.0107595
-0.0108256
-0.0108933
-0.0109596
-0.0110214
-0.0110865
-0.0111483
-0.0112155
-0.0112841
-0.0113566
-0.0114327
-0.0115061
-0.0115851
-0.0116602
-0.0117391
-0.0118184
-0.0118962
-0.0119804
-0.0120593
-0.0121461
-0.0122278
-0.0123159
-0.0123996
-0.0124864
-0.0125733
-0.0126511
-0.012724
-0.012796
-0.0127917
-0.0127467
0.00618418
0.003543
-0.00226669
-0.00746276
-0.00954711
-0.0091412
-0.00804388
-0.00722827
-0.00681319
-0.00670442
-0.00684018
-0.00701464
-0.00703335
-0.00697589
-0.00694629
-0.00689871
-0.00684132
-0.00683507
-0.00684759
-0.0068282
-0.00680216
-0.00681608
-0.0068696
-0.00693079
-0.00699028
-0.00705387
-0.00712049
-0.00719083
-0.00725496
-0.00730289
-0.00734315
-0.00739652
-0.00747288
-0.00757548
-0.00770672
-0.00785154
-0.00800116
-0.00814923
-0.00825724
-0.00833357
-0.00842371
-0.00851177
-0.00858671
-0.00868753
-0.00881372
-0.00891883
-0.00899829
-0.0090872
-0.00919217
-0.00929103
-0.00937847
-0.00945137
-0.00952528
-0.00962908
-0.00973133
-0.00979343
-0.00985396
-0.00994218
-0.0100173
-0.0100732
-0.0101381
-0.0102115
-0.0102752
-0.0103338
-0.0103959
-0.0104561
-0.0105164
-0.0105752
-0.0106376
-0.0106966
-0.0107594
-0.0108255
-0.0108933
-0.0109595
-0.0110214
-0.0110865
-0.0111483
-0.0112154
-0.011284
-0.0113566
-0.0114326
-0.0115061
-0.0115851
-0.0116602
-0.0117391
-0.0118184
-0.0118962
-0.0119804
-0.0120593
-0.0121461
-0.0122278
-0.0123159
-0.0123996
-0.0124864
-0.0125733
-0.0126511
-0.0127241
-0.012796
-0.0127919
-0.0127466
0.00559907
0.00332821
-0.00200449
-0.00706948
-0.0092973
-0.00904628
-0.00800684
-0.00719639
-0.00678154
-0.00667824
-0.00681631
-0.00698944
-0.0070089
-0.00695492
-0.00692944
-0.00688624
-0.00683222
-0.00682712
-0.00684007
-0.0068222
-0.00679805
-0.00681273
-0.00686594
-0.00692685
-0.00698662
-0.00705078
-0.00711784
-0.00718837
-0.00725265
-0.00730097
-0.00734166
-0.00739508
-0.00747106
-0.00757317
-0.00770425
-0.00784932
-0.00799925
-0.00814741
-0.00825535
-0.00833157
-0.00842179
-0.00851018
-0.00858546
-0.00868629
-0.00881231
-0.00891743
-0.00899715
-0.00908628
-0.00919125
-0.00929
-0.00937746
-0.00945052
-0.00952451
-0.0096283
-0.00973058
-0.00979275
-0.00985336
-0.00994163
-0.0100168
-0.0100727
-0.0101377
-0.0102112
-0.0102748
-0.0103335
-0.0103956
-0.0104559
-0.0105162
-0.010575
-0.0106375
-0.0106965
-0.0107593
-0.0108254
-0.0108932
-0.0109594
-0.0110213
-0.0110864
-0.0111482
-0.0112154
-0.011284
-0.0113565
-0.0114326
-0.0115061
-0.0115851
-0.0116602
-0.0117391
-0.0118184
-0.0118962
-0.0119804
-0.0120593
-0.0121461
-0.0122278
-0.0123159
-0.0123996
-0.0124864
-0.0125734
-0.0126511
-0.0127241
-0.0127961
-0.0127921
-0.0127464
0.00503456
0.00308404
-0.00175466
-0.00666628
-0.00903233
-0.00894485
-0.00796999
-0.0071648
-0.00674816
-0.00664983
-0.00679086
-0.00696313
-0.00698344
-0.00693291
-0.00691152
-0.0068727
-0.00682214
-0.00681819
-0.00683162
-0.0068155
-0.00679358
-0.00680914
-0.00686195
-0.00692245
-0.00698237
-0.007047
-0.00711446
-0.00718518
-0.00724977
-0.00729877
-0.00734023
-0.00739394
-0.00746953
-0.00757097
-0.0077017
-0.00784689
-0.00799697
-0.00814505
-0.00825285
-0.00832896
-0.00841926
-0.00850812
-0.00858391
-0.00868473
-0.00881038
-0.00891547
-0.00899561
-0.0090851
-0.00919003
-0.00928859
-0.00937607
-0.00944935
-0.00952348
-0.0096272
-0.00972947
-0.00979178
-0.00985252
-0.00994083
-0.010016
-0.010072
-0.0101371
-0.0102106
-0.0102743
-0.010333
-0.0103952
-0.0104555
-0.0105159
-0.0105748
-0.0106372
-0.0106962
-0.0107591
-0.0108253
-0.010893
-0.0109593
-0.0110212
-0.0110863
-0.0111481
-0.0112153
-0.0112839
-0.0113565
-0.0114325
-0.011506
-0.0115851
-0.0116602
-0.0117391
-0.0118184
-0.0118962
-0.0119804
-0.0120593
-0.0121461
-0.0122278
-0.0123159
-0.0123996
-0.0124864
-0.0125734
-0.0126512
-0.0127241
-0.0127963
-0.0127923
-0.0127463
0.00450228
0.00281757
-0.00152433
-0.00625877
-0.00875305
-0.00883612
-0.00793311
-0.00713387
-0.00671326
-0.00661918
-0.00676385
-0.00693585
-0.00695718
-0.00691016
-0.00689286
-0.00685842
-0.00681137
-0.00680863
-0.00682257
-0.00680834
-0.00678881
-0.00680535
-0.00685774
-0.00691776
-0.00697776
-0.00704273
-0.00711044
-0.00718127
-0.00724621
-0.00729613
-0.00733869
-0.00739297
-0.00746834
-0.00756912
-0.00769942
-0.0078446
-0.00799459
-0.00814227
-0.00824971
-0.00832566
-0.00841606
-0.00850557
-0.00858209
-0.00868285
-0.00880791
-0.00891289
-0.00899358
-0.00908355
-0.00918846
-0.00928674
-0.00937422
-0.00944782
-0.00952213
-0.00962573
-0.00972794
-0.00979048
-0.00985141
-0.00993972
-0.0100149
-0.0100711
-0.0101363
-0.0102098