/*--------------------------------*- C++ -*----------------------------------*\
| =========                 |                                                 |
| \\      /  F ield         | OpenFOAM: The Open Source CFD Toolbox           |
|  \\    /   O peration     | Version:  2106                                  |
|   \\  /    A nd           | Website:  www.openfoam.com                      |
|    \\/     M anipulation  |                                                 |
\*---------------------------------------------------------------------------*/
FoamFile
{
    version     2.0;
    format      ascii;
    arch        "LSB;label=32;scalar=64";
    class       surfaceScalarField;
    location    "0.545";
    object      phi;
}
// * * * * * * * * * * * * * * * * * * * * * * * * * * * * * * * * * * * * * //

dimensions      [0 3 -1 0 0 0 0];

oriented        oriented;

internalField   nonuniform List<scalar> 
19000
(
1.17026e-06
1.42953e-07
1.17119e-06
-2.72431e-07
1.16895e-06
1.69515e-07
1.14067e-06
-7.52657e-07
1.18631e-06
2.26563e-07
1.15474e-06
1.33451e-07
1.14399e-06
-2.67378e-07
1.17145e-06
2.81577e-07
1.17697e-06
-2.78867e-08
1.18605e-06
-1.04014e-07
1.18804e-06
-7.55386e-08
1.17751e-06
-7.92365e-08
1.19344e-06
4.06652e-07
1.16243e-06
-2.03847e-07
1.18436e-06
3.57235e-07
1.15123e-06
3.48071e-08
1.16713e-06
2.21468e-07
1.15058e-06
1.35766e-07
1.15346e-06
1.1903e-07
1.00044e-07
1.12414e-06
1.22404e-06
1.43175e-07
1.22554e-06
-2.73935e-07
1.22068e-06
1.74378e-07
1.19327e-06
-7.25247e-07
1.23773e-06
1.82102e-07
1.2127e-06
1.58485e-07
1.20064e-06
-2.55318e-07
1.23125e-06
2.50961e-07
1.23531e-06
-3.19378e-08
1.2455e-06
-1.14211e-07
1.24469e-06
-7.47236e-08
1.23768e-06
-7.22271e-08
1.24534e-06
3.98994e-07
1.22315e-06
-1.81659e-07
1.23024e-06
3.50144e-07
1.21843e-06
4.66213e-08
1.20965e-06
2.30242e-07
1.22265e-06
1.22765e-07
1.19521e-06
1.46475e-07
8.66705e-08
1.20858e-06
1.27999e-06
1.45965e-07
1.28151e-06
-2.75449e-07
1.27469e-06
1.81191e-07
1.25097e-06
-7.01521e-07
1.28966e-06
1.43414e-07
1.27647e-06
1.71673e-07
1.26025e-06
-2.39095e-07
1.29305e-06
2.1816e-07
1.29543e-06
-3.43244e-08
1.30774e-06
-1.26513e-07
1.30276e-06
-6.97445e-08
1.30052e-06
-6.9988e-08
1.30395e-06
3.95563e-07
1.29003e-06
-1.67744e-07
1.28986e-06
3.50313e-07
1.28818e-06
4.83033e-08
1.27604e-06
2.4238e-07
1.28549e-06
1.13319e-07
1.27182e-06
1.60144e-07
9.5921e-08
1.26257e-06
1.33927e-06
1.50797e-07
1.34035e-06
-2.7653e-07
1.33175e-06
1.89793e-07
1.31449e-06
-6.84259e-07
1.34537e-06
1.12527e-07
1.34333e-06
1.73715e-07
1.32449e-06
-2.2025e-07
1.35478e-06
1.87868e-07
1.35801e-06
-3.7551e-08
1.3693e-06
-1.3781e-07
1.36346e-06
-6.39021e-08
1.36319e-06
-6.97164e-08
1.36773e-06
3.91018e-07
1.35806e-06
-1.58072e-07
1.35866e-06
3.49712e-07
1.35754e-06
4.94249e-08
1.35166e-06
2.48264e-07
1.35227e-06
1.1271e-07
1.34794e-06
1.64467e-07
1.11815e-07
1.33205e-06
1.40277e-06
1.56384e-07
1.40264e-06
-2.76407e-07
1.39283e-06
1.99611e-07
1.38274e-06
-6.74173e-07
1.40663e-06
8.86399e-08
1.41072e-06
1.69625e-07
1.39368e-06
-2.03215e-07
1.41843e-06
1.63117e-07
1.4233e-06
-4.24131e-08
1.43114e-06
-1.45659e-07
1.42672e-06
-5.94777e-08
1.42708e-06
-7.00773e-08
1.43397e-06
3.84126e-07
1.4263e-06
-1.50397e-07
1.42955e-06
3.46455e-07
1.42706e-06
5.19232e-08
1.4261e-06
2.4922e-07
1.42191e-06
1.16896e-07
1.41984e-06
1.66547e-07
1.28373e-07
1.40328e-06
1.4709e-06
1.61159e-07
1.46885e-06
-2.74355e-07
1.45869e-06
2.09773e-07
1.45442e-06
-6.69907e-07
1.47338e-06
6.96794e-08
1.47837e-06
1.6464e-07
1.46655e-06
-1.91399e-07
1.48597e-06
1.43694e-07
1.49077e-06
-4.72112e-08
1.49481e-06
-1.49697e-07
1.49196e-06
-5.66295e-08
1.49336e-06
-7.14773e-08
1.50198e-06
3.75505e-07
1.49526e-06
-1.43675e-07
1.5009e-06
3.40815e-07
1.49742e-06
5.54004e-08
1.49938e-06
2.47263e-07
1.49252e-06
1.23753e-07
1.4912e-06
1.67867e-07
1.45456e-07
1.47412e-06
1.54339e-06
1.63983e-07
1.53925e-06
-2.7021e-07
1.52963e-06
2.19392e-07
1.52875e-06
-6.69032e-07
1.54432e-06
5.41174e-08
1.54752e-06
1.61435e-07
1.54128e-06
-1.85156e-07
1.55721e-06
1.27763e-07
1.56004e-06
-5.00388e-08
1.56094e-06
-1.50601e-07
1.55897e-06
-5.46593e-08
1.56186e-06
-7.43672e-08
1.57154e-06
3.65821e-07
1.5651e-06
-1.37237e-07
1.57277e-06
3.3315e-07
1.56855e-06
5.96154e-08
1.57264e-06
2.43181e-07
1.56372e-06
1.32669e-07
1.5632e-06
1.6839e-07
1.62921e-07
1.54573e-06
1.61953e-06
1.6458e-07
1.61383e-06
-2.64512e-07
1.60547e-06
2.27758e-07
1.60553e-06
-6.69099e-07
1.61816e-06
4.14918e-08
1.61949e-06
1.60101e-07
1.61703e-06
-1.82692e-07
1.63096e-06
1.13836e-07
1.63133e-06
-5.04149e-08
1.62995e-06
-1.49217e-07
1.62808e-06
-5.27933e-08
1.63209e-06
-7.83778e-08
1.64234e-06
3.5557e-07
1.63567e-06
-1.30567e-07
1.64507e-06
3.23758e-07
1.64e-06
6.46803e-08
1.64597e-06
2.37214e-07
1.63542e-06
1.43217e-07
1.6358e-06
1.68007e-07
1.80019e-07
1.6187e-06
1.69872e-06
1.63432e-07
1.69238e-06
-2.5817e-07
1.68574e-06
2.34402e-07
1.6849e-06
-6.68265e-07
1.69457e-06
3.18209e-08
1.69516e-06
1.59517e-07
1.69426e-06
-1.81793e-07
1.70673e-06
1.01361e-07
1.70535e-06
-4.90259e-08
1.70248e-06
-1.4635e-07
1.70011e-06
-5.04271e-08
1.70421e-06
-8.2477e-08
1.7147e-06
3.45081e-07
1.70737e-06
-1.23233e-07
1.71814e-06
3.12981e-07
1.71205e-06
7.07788e-08
1.71973e-06
2.29525e-07
1.70815e-06
1.54797e-07
1.70946e-06
1.66702e-07
1.95797e-07
1.69368e-06
1.78083e-06
1.6132e-07
1.77468e-06
-2.52018e-07
1.76997e-06
2.39114e-07
1.76718e-06
-6.65475e-07
1.77406e-06
2.4944e-08
1.775e-06
1.58572e-07
1.77403e-06
-1.80825e-07
1.78507e-06
9.03231e-08
1.78286e-06
-4.68139e-08
1.77918e-06
-1.42674e-07
1.77603e-06
-4.72732e-08
1.77913e-06
-8.55804e-08
1.78971e-06
3.34501e-07
1.78139e-06
-1.14912e-07
1.79321e-06
3.01167e-07
1.78598e-06
7.80008e-08
1.79517e-06
2.20335e-07
1.78323e-06
1.66742e-07
1.7853e-06
1.64633e-07
2.09372e-07
1.77172e-06
1.86614e-06
1.58928e-07
1.8607e-06
-2.46575e-07
1.85787e-06
2.41937e-07
1.85275e-06
-6.60347e-07
1.85735e-06
2.03376e-08
1.85927e-06
1.56653e-07
1.85737e-06
-1.78927e-07
1.86689e-06
8.08008e-08
1.86452e-06
-4.44354e-08
1.86049e-06
-1.38648e-07
1.8566e-06
-4.33807e-08
1.85806e-06
-8.7045e-08
1.86876e-06
3.23808e-07
1.85927e-06
-1.05429e-07
1.87187e-06
2.88567e-07
1.86355e-06
8.63253e-08
1.87394e-06
2.09943e-07
1.86222e-06
1.7846e-07
1.86463e-06
1.62221e-07
2.20065e-07
1.85394e-06
1.95509e-06
1.5668e-07
1.95055e-06
-2.42039e-07
1.9494e-06
2.43089e-07
1.94197e-06
-6.52919e-07
1.94501e-06
1.73003e-08
1.94806e-06
1.53604e-07
1.94495e-06
-1.75823e-07
1.95297e-06
7.2783e-08
1.95074e-06
-4.22006e-08
1.9466e-06
-1.34507e-07
1.94223e-06
-3.90108e-08
1.94194e-06
-8.6756e-08
1.95288e-06
3.12869e-07
1.94219e-06
-9.47447e-08
1.95546e-06
2.75298e-07
1.94614e-06
9.56492e-08
1.95734e-06
1.98739e-07
1.94632e-06
1.89481e-07
1.94842e-06
1.60122e-07
2.27429e-07
1.94106e-06
2.0481e-06
1.54764e-07
2.04447e-06
-2.384e-07
2.0447e-06
2.42856e-07
2.0352e-06
-6.43416e-07
2.03729e-06
1.52049e-08
2.04137e-06
1.49524e-07
2.03715e-06
-1.716e-07
2.04376e-06
6.61736e-08
2.04178e-06
-4.02197e-08
2.03759e-06
-1.30321e-07
2.03306e-06
-3.44758e-08
2.03122e-06
-8.49198e-08
2.04258e-06
3.0151e-07
2.03075e-06
-8.29185e-08
2.04464e-06
2.61413e-07
2.03449e-06
1.05794e-07
2.04602e-06
1.87212e-07
2.03609e-06
1.99409e-07
2.03717e-06
1.59039e-07
2.31307e-07
2.0333e-06
2.14555e-06
1.53215e-07
2.14268e-06
-2.35531e-07
2.14403e-06
2.41504e-07
2.13272e-06
-6.32108e-07
2.1343e-06
1.36265e-08
2.13921e-06
1.44614e-07
2.13414e-06
-1.66525e-07
2.13948e-06
6.08344e-08
2.1378e-06
-3.854e-08
2.13354e-06
-1.26061e-07
2.1291e-06
-3.00358e-08
2.12599e-06
-8.18146e-08
2.13791e-06
2.8959e-07
2.12507e-06
-7.00727e-08
2.13949e-06
2.46989e-07
2.12879e-06
1.16495e-07
2.14008e-06
1.75924e-07
2.13161e-06
2.07879e-07
2.13114e-06
1.59502e-07
2.31868e-07
2.13058e-06
2.24771e-06
1.51992e-07
2.24544e-06
-2.33258e-07
2.24768e-06
2.39262e-07
2.23483e-06
-6.19258e-07
2.23613e-06
1.23263e-08
2.24163e-06
1.39114e-07
2.23605e-06
-1.60939e-07
2.24027e-06
5.66128e-08
2.23893e-06
-3.72065e-08
2.23453e-06
-1.21651e-07
2.23036e-06
-2.58674e-08
2.2262e-06
-7.76574e-08
2.23875e-06
2.77042e-07
2.22506e-06
-5.63898e-08
2.23986e-06
2.32195e-07
2.22896e-06
1.27398e-07
2.23943e-06
1.6545e-07
2.23275e-06
2.14561e-07
2.23054e-06
1.61709e-07
2.2962e-07
2.23279e-06
2.35484e-06
1.51031e-07
2.35299e-06
-2.31413e-07
2.35593e-06
2.36327e-07
2.34178e-06
-6.05117e-07
2.34295e-06
1.11649e-08
2.34878e-06
1.33281e-07
2.34302e-06
-1.55178e-07
2.34627e-06
5.33583e-08
2.34533e-06
-3.62665e-08
2.34068e-06
-1.16997e-07
2.33689e-06
-2.20745e-08
2.33182e-06
-7.25964e-08
2.34497e-06
2.63893e-07
2.3307e-06
-4.21153e-08
2.3456e-06
2.17294e-07
2.33492e-06
1.38082e-07
2.34405e-06
1.56318e-07
2.33942e-06
2.19187e-07
2.3356e-06
1.65532e-07
2.2532e-07
2.3399e-06
2.46715e-06
1.50275e-07
2.46561e-06
-2.29867e-07
2.46906e-06
2.32874e-07
2.45384e-06
-5.899e-07
2.45498e-06
1.00305e-08
2.46089e-06
1.27368e-07
2.45523e-06
-1.49521e-07
2.45765e-06
5.094e-08
2.45714e-06
-3.57581e-08
2.45215e-06
-1.12007e-07
2.44879e-06
-1.8706e-08
2.44295e-06
-6.67595e-08
2.45658e-06
2.5026e-07
2.44202e-06
-2.75502e-08
2.45669e-06
2.02624e-07
2.44666e-06
1.48106e-07
2.45406e-06
1.48921e-07
2.4516e-06
2.21651e-07
2.44649e-06
1.70641e-07
2.19774e-07
2.45203e-06
2.58489e-06
1.49684e-07
2.58356e-06
-2.28543e-07
2.58738e-06
2.29051e-07
2.57126e-06
-5.7378e-07
2.57248e-06
8.81371e-09
2.57825e-06
1.21595e-07
2.57291e-06
-1.44176e-07
2.57459e-06
4.92625e-08
2.57453e-06
-3.57044e-08
2.56914e-06
-1.06615e-07
2.5662e-06
-1.57647e-08
2.55974e-06
-6.03002e-08
2.57365e-06
2.36346e-07
2.55914e-06
-1.30412e-08
2.57321e-06
1.88557e-07
2.56424e-06
1.57083e-07
2.56971e-06
1.43448e-07
2.56929e-06
2.22065e-07
2.56338e-06
1.76558e-07
2.13733e-07
2.56942e-06
2.70828e-06
1.49237e-07
2.70714e-06
-2.27406e-07
2.71122e-06
2.24966e-07
2.69431e-06
-5.5687e-07
2.69571e-06
7.41325e-09
2.70117e-06
1.16135e-07
2.69628e-06
-1.39281e-07
2.69727e-06
4.82735e-08
2.69767e-06
-3.61128e-08
2.69186e-06
-1.00797e-07
2.6893e-06
-1.32038e-08
2.68241e-06
-5.34162e-08
2.69635e-06
2.22406e-07
2.68225e-06
1.06081e-09
2.69536e-06
1.75445e-07
2.6877e-06
1.6474e-07
2.69127e-06
1.39885e-07
2.69262e-06
2.20714e-07
2.68642e-06
1.82753e-07
2.0781e-07
2.69235e-06
2.83758e-06
1.48927e-07
2.83662e-06
-2.26447e-07
2.8409e-06
2.20689e-07
2.82326e-06
-5.39234e-07
2.82493e-06
5.74566e-09
2.82995e-06
1.11115e-07
2.82559e-06
-1.34925e-07
2.82591e-06
4.79541e-08
2.82677e-06
-3.69686e-08
2.82056e-06
-9.45905e-08
2.81827e-06
-1.09097e-08
2.81121e-06
-4.63629e-08
2.82488e-06
2.08743e-07
2.8115e-06
1.44369e-08
2.8234e-06
1.63546e-07
2.81715e-06
1.70985e-07
2.81899e-06
1.38046e-07
2.82176e-06
2.17945e-07
2.81576e-06
1.88759e-07
2.02422e-07
2.82114e-06
2.97307e-06
1.4875e-07
2.97229e-06
-2.25666e-07
2.97673e-06
2.16252e-07
2.95839e-06
-5.20894e-07
2.96039e-06
3.74403e-09
2.96488e-06
1.06629e-07
2.96112e-06
-1.31171e-07
2.96078e-06
4.82982e-08
2.96203e-06
-3.82232e-08
2.95554e-06
-8.81012e-08
2.95335e-06
-8.71375e-09
2.9464e-06
-3.94115e-08
2.9595e-06
1.95638e-07
2.94706e-06
2.68764e-08
2.95764e-06
1.5297e-07
2.95273e-06
1.75894e-07
2.95313e-06
1.37651e-07
2.95699e-06
2.14077e-07
2.95153e-06
1.94219e-07
1.97825e-07
2.95613e-06
3.11505e-06
1.48702e-07
3.11445e-06
-2.25058e-07
3.11904e-06
2.11658e-07
3.09999e-06
-5.01843e-07
3.10238e-06
1.34893e-09
3.10626e-06
1.02756e-07
3.10315e-06
-1.2806e-07
3.10216e-06
4.92886e-08
3.10372e-06
-3.9784e-08
3.09712e-06
-8.15031e-08
3.09479e-06
-6.3878e-09
3.08823e-06
-3.28496e-08
3.10053e-06
1.83341e-07
3.08913e-06
3.82765e-08
3.0984e-06
1.43697e-07
3.09468e-06
1.79613e-07
3.09386e-06
1.38469e-07
3.09862e-06
2.09318e-07
3.09396e-06
1.98886e-07
1.94132e-07
3.09765e-06
3.26383e-06
1.48778e-07
3.26339e-06
-2.2461e-07
3.26815e-06
2.06889e-07
3.24836e-06
-4.82052e-07
3.25122e-06
-1.50302e-09
3.2544e-06
9.95737e-08
3.25196e-06
-1.25619e-07
3.25037e-06
5.08756e-08
3.25209e-06
-4.15026e-08
3.24562e-06
-7.50347e-08
3.2429e-06
-3.66806e-09
3.23698e-06
-2.6926e-08
3.24831e-06
1.72006e-07
3.23791e-06
4.8683e-08
3.24599e-06
1.35609e-07
3.24332e-06
1.82282e-07
3.24145e-06
1.40344e-07
3.24693e-06
2.03832e-07
3.24329e-06
2.02532e-07
1.91397e-07
3.24602e-06
3.41974e-06
1.48966e-07
3.41942e-06
-2.24292e-07
3.42441e-06
2.01902e-07
3.40383e-06
-4.61473e-07
3.40722e-06
-4.8867e-09
3.40963e-06
9.71645e-08
3.40787e-06
-1.23859e-07
3.40578e-06
5.29634e-08
3.40744e-06
-4.31663e-08
3.40139e-06
-6.89866e-08
3.39802e-06
-2.96364e-10
3.3929e-06
-2.18028e-08
3.40325e-06
1.61657e-07
3.39365e-06
5.82786e-08
3.40071e-06
1.28553e-07
3.39904e-06
1.83948e-07
3.3962e-06
1.43187e-07
3.40222e-06
1.97809e-07
3.39982e-06
2.04936e-07
1.89596e-07
3.40162e-06
3.58313e-06
1.49251e-07
3.58289e-06
-2.24058e-07
3.58816e-06
1.96632e-07
3.56673e-06
-4.40041e-07
3.57073e-06
-8.89103e-09
3.57228e-06
9.56166e-08
3.57119e-06
-1.22766e-07
3.56875e-06
5.54014e-08
3.57008e-06
-4.44967e-08
3.56477e-06
-6.3678e-08
3.56055e-06
3.92626e-09
3.55624e-06
-1.74898e-08
3.56574e-06
1.52157e-07
3.55668e-06
6.73372e-08
3.56283e-06
1.22406e-07
3.56221e-06
1.84561e-07
3.55851e-06
1.46895e-07
3.56476e-06
1.9155e-07
3.56386e-06
2.05844e-07
1.88622e-07
3.56483e-06
3.75435e-06
1.49608e-07
3.75413e-06
-2.23843e-07
3.75978e-06
1.90987e-07
3.73741e-06
-4.1767e-07
3.74213e-06
-1.36117e-08
3.74273e-06
9.50172e-08
3.74226e-06
-1.22301e-07
3.73968e-06
5.79809e-08
3.74035e-06
-4.51643e-08
3.73609e-06
-5.94168e-08
3.73093e-06
9.09032e-09
3.72725e-06
-1.3813e-08
3.73618e-06
1.43228e-07
3.72738e-06
7.61358e-08
3.73262e-06
1.17163e-07
3.73319e-06
1.83996e-07
3.72882e-06
1.5126e-07
3.73491e-06
1.85466e-07
3.73569e-06
2.05065e-07
1.88247e-07
3.73606e-06
3.93379e-06
1.50005e-07
3.93351e-06
-2.23563e-07
3.93965e-06
1.84851e-07
3.91624e-06
-3.94267e-07
3.92176e-06
-1.91324e-08
3.92136e-06
9.54172e-08
3.92143e-06
-1.22364e-07
3.91899e-06
6.0421e-08
3.91862e-06
-4.48015e-08
3.91567e-06
-5.64649e-08
3.90961e-06
1.51502e-08
3.90621e-06
-1.04162e-08
3.91493e-06
1.34512e-07
3.9062e-06
8.48645e-08
3.91039e-06
1.12972e-07
3.91228e-06
1.82104e-07
3.9076e-06
1.55945e-07
3.91307e-06
1.8e-07
3.91557e-06
2.02557e-07
1.88097e-07
3.91572e-06
4.12185e-06
1.50403e-07
4.1214e-06
-2.23109e-07
4.12817e-06
1.78085e-07
4.10363e-06
-3.69734e-07
4.11001e-06
-2.55081e-08
4.10862e-06
9.68024e-08
4.10903e-06
-1.22767e-07
4.10707e-06
6.23722e-08
4.10532e-06
-4.3047e-08
4.10382e-06
-5.49645e-08
4.09708e-06
2.18948e-08
4.09349e-06
-6.82791e-09
4.1023e-06
1.25704e-07
4.09364e-06
9.35236e-08
4.09653e-06
1.10076e-07
4.09982e-06
1.78817e-07
4.09527e-06
1.60497e-07
4.09975e-06
1.7552e-07
4.10379e-06
1.98517e-07
1.87687e-07
4.1042e-06
4.31895e-06
1.50751e-07
4.3182e-06
-2.22351e-07
4.32576e-06
1.70526e-07
4.30001e-06
-3.43987e-07
4.30724e-06
-3.27407e-08
4.30497e-06
9.90709e-08
4.30544e-06
-1.2323e-07
4.30436e-06
6.34449e-08
4.30092e-06
-3.96017e-08
4.30084e-06
-5.48894e-08
4.2938e-06
2.8936e-08
4.28949e-06
-2.52097e-09
4.29855e-06
1.16645e-07
4.29019e-06
1.01883e-07
4.29152e-06
1.08747e-07
4.29613e-06
1.74211e-07
4.29219e-06
1.64433e-07
4.29551e-06
1.72204e-07
4.30065e-06
1.93372e-07
1.86541e-07
4.3018e-06
4.52553e-06
1.5099e-07
4.52432e-06
-2.21135e-07
4.53285e-06
1.61997e-07
4.50583e-06
-3.16965e-07
4.51384e-06
-4.07581e-08
4.5109e-06
1.02013e-07
4.51104e-06
-1.23373e-07
4.51125e-06
6.32338e-08
4.50594e-06
-3.42822e-08
4.50704e-06
-5.59899e-08
4.50024e-06
3.57348e-08
4.49476e-06
2.95216e-09
4.50399e-06
1.07415e-07
4.49636e-06
1.09519e-07
4.49595e-06
1.09152e-07
4.5016e-06
1.68565e-07
4.49871e-06
1.67321e-07
4.50095e-06
1.69969e-07
4.5066e-06
1.87721e-07
1.84322e-07
4.50882e-06
4.74205e-06
1.51052e-07
4.74021e-06
-2.19287e-07
4.74988e-06
1.52322e-07
4.72158e-06
-2.88667e-07
4.73022e-06
-4.93927e-08
4.72693e-06
1.05298e-07
4.72628e-06
-1.22717e-07
4.72813e-06
6.13762e-08
4.72095e-06
-2.71016e-08
4.72274e-06
-5.77754e-08
4.71677e-06
4.17004e-08
4.70987e-06
9.85412e-09
4.719e-06
9.82905e-08
4.71256e-06
1.15954e-07
4.71047e-06
1.1124e-07
4.71666e-06
1.6238e-07
4.71518e-06
1.68798e-07
4.71657e-06
1.68582e-07
4.72219e-06
1.821e-07
1.80993e-07
4.72552e-06
4.96899e-06
1.50856e-07
4.96632e-06
-2.16617e-07
4.97731e-06
1.4134e-07
4.94781e-06
-2.59168e-07
4.95678e-06
-5.83685e-08
4.95359e-06
1.08494e-07
4.9516e-06
-1.20728e-07
4.95538e-06
5.75942e-08
4.94655e-06
-1.82717e-08
4.94839e-06
-5.96142e-08
4.94376e-06
4.63318e-08
4.93541e-06
1.82027e-08
4.94399e-06
8.9713e-08
4.93918e-06
1.20756e-07
4.9357e-06
1.14722e-07
4.94184e-06
1.56247e-07
4.94194e-06
1.6869e-07
4.94284e-06
1.67683e-07
4.94808e-06
1.76868e-07
1.76806e-07
4.95226e-06
5.20686e-06
1.50317e-07
5.20316e-06
-2.12919e-07
5.21558e-06
1.2892e-07
5.18506e-06
-2.28645e-07
5.19397e-06
-6.72867e-08
5.1914e-06
1.11069e-07
5.18752e-06
-1.16853e-07
5.19335e-06
5.17628e-08
5.18336e-06
-8.2749e-09
5.18449e-06
-6.07472e-08
5.18154e-06
4.9283e-08
5.172e-06
2.77438e-08
5.17944e-06
8.22687e-08
5.17657e-06
1.23626e-07
5.17218e-06
1.1911e-07
5.17777e-06
1.50663e-07
5.17942e-06
1.67038e-07
5.1802e-06
1.66908e-07
5.18492e-06
1.72144e-07
1.72168e-07
5.18956e-06
5.45616e-06
1.49342e-07
5.45123e-06
-2.07982e-07
5.46516e-06
1.14983e-07
5.43393e-06
-1.97409e-07
5.44227e-06
-7.56262e-08
5.44089e-06
1.12442e-07
5.43463e-06
-1.10593e-07
5.44243e-06
4.39682e-08
5.43197e-06
2.18661e-09
5.43164e-06
-6.04231e-08
5.43055e-06
5.03759e-08
5.42019e-06
3.81044e-08
5.42597e-06
7.6491e-08
5.42514e-06
1.2445e-07
5.42042e-06
1.23834e-07
5.42509e-06
1.45991e-07
5.42809e-06
1.64044e-07
5.42905e-06
1.65943e-07
5.43329e-06
1.67899e-07
1.67405e-07
5.43806e-06
5.71747e-06
1.47834e-07
5.71108e-06
-2.01596e-07
5.72654e-06
9.95216e-08
5.69504e-06
-1.65904e-07
5.70219e-06
-8.27757e-08
5.70259e-06
1.12035e-07
5.69361e-06
-1.01607e-07
5.70299e-06
3.45866e-08
5.6929e-06
1.22737e-08
5.69047e-06
-5.79973e-08
5.69115e-06
4.97052e-08
5.68063e-06
4.86221e-08
5.68432e-06
7.28013e-08
5.68537e-06
1.23401e-07
5.68087e-06
1.2833e-07
5.68447e-06
1.42396e-07
5.68851e-06
1.60004e-07
5.68988e-06
1.64564e-07
5.69372e-06
1.6406e-07
1.62661e-07
5.69847e-06
5.99133e-06
1.45696e-07
5.9833e-06
-1.93561e-07
6.00021e-06
8.26052e-08
5.96902e-06
-1.34709e-07
5.97431e-06
-8.80656e-08
5.97702e-06
1.09323e-07
5.9653e-06
-8.98819e-08
5.9755e-06
2.43861e-08
5.96661e-06
2.11615e-08
5.96177e-06
-5.31571e-08
5.96376e-06
4.77098e-08
5.95387e-06
5.85167e-08
5.9554e-06
7.12667e-08
5.95781e-06
1.20999e-07
5.95403e-06
1.32103e-07
5.95652e-06
1.39907e-07
5.96128e-06
1.55246e-07
5.96327e-06
1.62572e-07
5.96672e-06
1.60615e-07
1.57929e-07
5.97145e-06
6.27835e-06
1.42837e-07
6.26849e-06
-1.83699e-07
6.2867e-06
6.43875e-08
6.25652e-06
-1.04523e-07
6.25928e-06
-9.0828e-08
6.26468e-06
1.03925e-07
6.25062e-06
-7.58278e-08
6.26051e-06
1.45042e-08
6.25352e-06
2.81457e-08
6.24635e-06
-4.59818e-08
6.24897e-06
4.50889e-08
6.24033e-06
6.71541e-08
6.23999e-06
7.16047e-08
6.24313e-06
1.17859e-07
6.24041e-06
1.34823e-07
6.24192e-06
1.38398e-07
6.24702e-06
1.50151e-07
6.24981e-06
1.59775e-07
6.25289e-06
1.57542e-07
1.53216e-07
6.2576e-06
6.57913e-06
1.39173e-07
6.56729e-06
-1.71857e-07
6.58658e-06
4.50965e-08
6.55819e-06
-7.61289e-08
6.55781e-06
-9.04489e-08
6.56601e-06
9.57189e-08
6.55036e-06
-6.01764e-08
6.55868e-06
6.18519e-09
6.55405e-06
3.27753e-08
6.54502e-06
-3.69446e-08
6.54742e-06
4.26799e-08
6.5405e-06
7.40771e-08
6.53871e-06
7.33987e-08
6.54209e-06
1.14481e-07
6.54056e-06
1.36344e-07
6.54133e-06
1.37634e-07
6.54636e-06
1.45119e-07
6.55009e-06
1.56041e-07
6.55291e-06
1.54723e-07
1.48627e-07
6.5575e-06
6.89432e-06
1.34639e-07
6.88039e-06
-1.57921e-07
6.90045e-06
2.50358e-08
6.87467e-06
-5.03518e-08
6.87068e-06
-8.64623e-08
6.88132e-06
8.50838e-08
6.86513e-06
-4.39843e-08
6.87089e-06
4.27371e-10
6.86861e-06
3.50479e-08
6.85858e-06
-2.69149e-08
6.86006e-06
4.12e-08
6.85482e-06
7.93164e-08
6.85217e-06
7.60521e-08
6.85542e-06
1.11236e-07
6.8551e-06
1.3666e-07
6.85541e-06
1.37322e-07
6.86005e-06
1.40486e-07
6.86468e-06
1.5141e-07
6.86751e-06
1.51887e-07
1.44355e-07
6.87179e-06
7.22458e-06
1.29196e-07
7.20849e-06
-1.41831e-07
7.22895e-06
4.57701e-09
7.20655e-06
-2.79495e-08
7.19883e-06
-7.87476e-08
7.21112e-06
7.27971e-08
7.19552e-06
-2.83857e-08
7.19812e-06
-2.17358e-09
7.19772e-06
3.5446e-08
7.18772e-06
-1.69163e-08
7.18791e-06
4.10153e-08
7.18398e-06
8.32395e-08
7.18091e-06
7.91243e-08
7.18391e-06
1.08243e-07
7.18466e-06
1.35907e-07
7.18485e-06
1.37133e-07
7.18887e-06
1.36463e-07
7.19415e-06
1.4613e-07
7.19736e-06
1.48677e-07
1.40523e-07
7.20119e-06
7.57058e-06
1.22843e-07
7.55244e-06
-1.2369e-07
7.57277e-06
-1.57561e-08
7.55436e-06
-9.53342e-09
7.54315e-06
-6.75449e-08
7.55611e-06
5.98439e-08
7.54212e-06
-1.44e-08
7.54141e-06
-1.46177e-09
7.54216e-06
3.46962e-08
7.5329e-06
-7.66049e-09
7.53189e-06
4.20236e-08
7.52883e-06
8.63062e-08
7.52557e-06
8.23845e-08
7.52826e-06
1.05545e-07
7.52999e-06
1.3418e-07
7.53028e-06
1.36848e-07
7.53364e-06
1.33101e-07
7.53923e-06
1.40534e-07
7.54308e-06
1.44835e-07
1.37085e-07
7.54651e-06
7.93303e-06
1.15624e-07
7.91317e-06
-1.03828e-07
7.93269e-06
-3.52745e-08
7.91864e-06
4.51098e-09
7.90451e-06
-5.34101e-08
7.91706e-06
4.72949e-08
7.90554e-06
-2.88069e-09
7.90178e-06
2.29979e-09
7.90264e-06
3.38306e-08
7.89463e-06
3.47819e-10
7.8928e-06
4.38549e-08
7.89026e-06
8.88502e-08
7.88689e-06
8.5753e-08
7.88923e-06
1.03207e-07
7.89182e-06
1.3159e-07
7.89244e-06
1.36228e-07
7.89515e-06
1.30388e-07
7.90075e-06
1.34936e-07
7.90531e-06
1.40276e-07
1.33825e-07
7.90857e-06
8.31267e-06
1.07635e-07
8.29163e-06
-8.27892e-08
8.30948e-06
-5.31242e-08
8.29996e-06
1.4027e-08
8.28373e-06
-3.71741e-08
8.29486e-06
3.61623e-08
8.28622e-06
5.76545e-09
8.28014e-06
8.37871e-09
8.28017e-06
3.38003e-08
8.27342e-06
7.09632e-09
8.27129e-06
4.59783e-08
8.26917e-06
9.09777e-08
8.26575e-06
8.9172e-08
8.26761e-06
1.01343e-07
8.2709e-06
1.28301e-07
8.27206e-06
1.35071e-07
8.27424e-06
1.28208e-07
8.27955e-06
1.29625e-07
8.28474e-06
1.35084e-07
1.30421e-07
8.28815e-06
8.71027e-06
9.90271e-08
8.68875e-06
-6.12686e-08
8.70401e-06
-6.839e-08
8.69893e-06
1.91116e-08
8.68165e-06
-1.9896e-08
8.69052e-06
2.72981e-08
8.68467e-06
1.16087e-08
8.67726e-06
1.57884e-08
8.67589e-06
3.51742e-08
8.66999e-06
1.29989e-08
8.66804e-06
4.79255e-08
8.66638e-06
9.26414e-08
8.66302e-06
9.25318e-08
8.66432e-06
1.00043e-07
8.66805e-06
1.24566e-07
8.66989e-06
1.33232e-07
8.67178e-06
1.26318e-07
8.67655e-06
1.24855e-07
8.68217e-06
1.29466e-07
1.26598e-07
8.68599e-06
9.12665e-06
8.99975e-08
9.10539e-06
-4.0013e-08
9.11722e-06
-8.02142e-08
9.11625e-06
2.00818e-08
9.0991e-06
-2.74602e-09
9.10508e-06
2.13151e-08
9.10167e-06
1.50153e-08
9.09383e-06
2.36289e-08
9.0909e-06
3.81046e-08
9.08536e-06
1.85442e-08
9.08371e-06
4.9574e-08
9.08263e-06
9.37156e-08
9.07952e-06
9.56482e-08
9.0803e-06
9.926e-08
9.08417e-06
1.20699e-07
9.0867e-06
1.30703e-07
9.08856e-06
1.24459e-07
9.09274e-06
1.20667e-07
9.09846e-06
1.23746e-07
1.22193e-07
9.10287e-06
9.56268e-06
8.07776e-08
9.54242e-06
-1.97509e-08
9.55013e-06
-8.79222e-08
9.55276e-06
1.74488e-08
9.53683e-06
1.31822e-08
9.53971e-06
1.84312e-08
9.53803e-06
1.67023e-08
9.53055e-06
3.11022e-08
9.5263e-06
4.23602e-08
9.52067e-06
2.41679e-08
9.5191e-06
5.11471e-08
9.5187e-06
9.41176e-08
9.51611e-06
9.82402e-08
9.51648e-06
9.88903e-08
9.52027e-06
1.16904e-07
9.52339e-06
1.27585e-07
9.52536e-06
1.22484e-07
9.5291e-06
1.1693e-07
9.53458e-06
1.1827e-07
1.17242e-07
9.53953e-06
1.00193e-05
7.16146e-08
1.00007e-05
-1.12349e-09
1.00039e-05
-9.11386e-08
1.00094e-05
1.19328e-08
9.99561e-06
2.6975e-08
9.9956e-06
1.84394e-08
9.99473e-06
1.7571e-08
9.98814e-06
3.76933e-08
9.98305e-06
4.74534e-08
9.97714e-06
3.00815e-08
9.97539e-06
5.28975e-08
9.9755e-06
9.4004e-08
9.97352e-06
1.0022e-07
9.97373e-06
9.86832e-08
9.97741e-06
1.13218e-07
9.98094e-06
1.24059e-07
9.9831e-06
1.2032e-07
9.98653e-06
1.13506e-07
9.99165e-06
1.13143e-07
1.12021e-07
9.99687e-06
1.04975e-05
6.27491e-08
1.0481e-05
1.5357e-08
1.04798e-05
-8.99442e-08
1.04872e-05
4.56878e-09
1.04762e-05
3.79494e-08
1.04738e-05
2.0894e-08
1.0473e-05
1.83068e-08
1.04674e-05
4.33023e-08
1.0462e-05
5.28508e-08
1.0456e-05
3.61277e-08
1.04538e-05
5.50944e-08
1.04541e-05
9.36843e-08
1.04527e-05
1.01633e-07
1.04529e-05
9.84545e-08
1.04566e-05
1.09582e-07
1.04604e-05
1.20225e-07
1.04628e-05
1.17896e-07
1.04659e-05
1.10372e-07
1.04708e-05
1.08246e-07
1.06893e-07
1.0476e-05
1.09984e-05
5.43874e-08
1.09844e-05
2.93283e-08
1.09793e-05
-8.48255e-08
1.09873e-05
-3.44269e-09
1.09795e-05
4.57963e-08
1.09753e-05
2.50964e-08
1.09742e-05
1.93908e-08
1.09694e-05
4.80592e-08
1.09641e-05
5.81781e-08
1.09583e-05
4.19537e-08
1.09556e-05
5.77677e-08
1.09558e-05
9.35125e-08
1.09547e-05
1.02727e-07
1.0955e-05
9.81105e-08
1.09586e-05
1.05945e-07
1.09628e-05
1.1605e-07
1.09655e-05
1.15175e-07
1.09684e-05
1.07535e-07
1.09731e-05
1.03525e-07
1.01924e-07
1.09781e-05
1.15231e-05
4.66888e-08
1.15118e-05
4.05924e-08
1.15035e-05
-7.65415e-08
1.1511e-05
-1.09393e-08
1.15062e-05
5.05642e-08
1.15011e-05
3.02433e-08
1.14994e-05
2.10593e-08
1.14953e-05
5.21749e-08
1.14901e-05
6.33419e-08
1.14847e-05
4.7368e-08
1.14821e-05
6.03668e-08
1.14818e-05
9.38545e-08
1.14808e-05
1.03768e-07
1.1481e-05
9.78121e-08
1.14847e-05
1.02321e-07
1.14893e-05
1.11461e-07
1.14924e-05
1.1207e-07
1.1495e-05
1.04935e-07
1.14993e-05
9.91566e-08
9.69781e-08
1.15043e-05
1.20728e-05
3.97471e-08
1.20642e-05
4.91617e-08
1.20537e-05
-6.60296e-08
1.20597e-05
-1.69607e-08
1.20576e-05
5.26944e-08
1.20523e-05
3.55448e-08
1.20501e-05
2.32783e-08
1.20465e-05
5.57661e-08
1.20413e-05
6.8544e-08
1.20364e-05
5.22762e-08
1.20343e-05
6.24494e-08
1.20337e-05
9.44502e-08
1.20324e-05
1.05089e-07
1.20323e-05
9.7877e-08
1.20358e-05
9.87814e-08
1.20408e-05
1.06533e-07
1.20444e-05
1.08426e-07
1.20469e-05
1.02407e-07
1.20507e-05
9.5388e-08
9.20072e-08
1.20557e-05
1.26487e-05
3.35989e-08
1.26427e-05
5.52241e-08
1.26309e-05
-5.42511e-08
1.26348e-05
-2.08606e-08
1.26347e-05
5.28212e-08
1.26298e-05
4.04221e-08
1.26272e-05
2.58481e-08
1.26241e-05
5.88774e-08
1.26188e-05
7.38741e-08
1.26142e-05
5.68719e-08
1.26129e-05
6.37375e-08
1.26127e-05
9.46715e-08
1.26109e-05
1.06849e-07
1.26102e-05
9.86385e-08
1.26134e-05
9.55488e-08
1.26185e-05
1.01426e-07
1.26228e-05
1.0414e-07
1.26255e-05
9.96877e-08
1.26287e-05
9.22214e-08
8.72406e-08
1.26334e-05
1.32523e-05
2.82294e-08
1.32484e-05
5.90851e-08
1.32362e-05
-4.20557e-08
1.32378e-05
-2.24015e-08
1.32389e-05
5.17094e-08
1.32348e-05
4.45091e-08
1.32322e-05
2.85018e-08
1.32296e-05
6.1456e-08
1.32242e-05
7.92353e-08
1.32194e-05
6.16679e-08
1.3219e-05
6.41217e-08
1.32198e-05
9.38734e-08
1.32179e-05
1.08795e-07
1.32163e-05
1.0025e-07
1.32187e-05
9.3097e-08
1.32239e-05
9.62199e-08
1.32288e-05
9.92939e-08
1.3232e-05
9.64788e-08
1.32348e-05
8.94136e-08
8.30081e-08
1.3239e-05
1.38848e-05
2.35845e-08
1.38827e-05
6.11534e-08
1.38708e-05
-3.01142e-08
1.38702e-05
-2.17888e-08
1.38718e-05
5.01256e-08
1.38685e-05
4.78203e-08
1.3866e-05
3.09392e-08
1.38642e-05
6.33264e-08
1.38589e-05
8.44653e-08
1.38536e-05
6.70288e-08
1.38537e-05
6.39501e-08
1.3856e-05
9.15765e-08
1.38547e-05
1.10155e-07
1.38522e-05
1.02697e-07
1.38535e-05
9.18549e-08
1.38585e-05
9.11555e-08
1.38638e-05
9.4006e-08
1.38678e-05
9.2509e-08
1.38706e-05
8.65671e-08
7.94547e-08
1.38742e-05
1.45477e-05
1.95889e-08
1.4547e-05
6.18636e-08
1.45357e-05
-1.89045e-08
1.45334e-05
-1.94389e-08
1.45349e-05
4.86552e-08
1.45322e-05
5.05258e-08
1.45301e-05
3.29704e-08
1.45291e-05
6.43561e-08
1.45243e-05
8.92427e-08
1.45184e-05
7.29667e-08
1.45183e-05
6.40318e-08
1.45222e-05
8.76869e-08
1.45224e-05
1.09923e-07
1.45195e-05
1.05661e-07
1.45194e-05
9.19547e-08
1.45237e-05
8.68024e-08
1.45293e-05
8.84117e-08
1.45339e-05
8.78659e-08
1.45372e-05
8.32687e-08
7.63183e-08
1.45404e-05
1.52423e-05
1.61548e-08
1.52425e-05
6.1649e-08
1.52323e-05
-8.69874e-09
1.52288e-05
-1.59419e-08
1.52299e-05
4.76209e-08
1.52274e-05
5.30195e-08
1.52258e-05
3.4577e-08
1.52258e-05
6.43557e-08
1.52218e-05
9.32071e-08
1.52155e-05
7.9224e-08
1.52143e-05
6.52437e-08
1.52194e-05
8.2582e-08
1.5222e-05
1.07354e-07
1.52194e-05
1.08255e-07
1.52181e-05
9.33064e-08
1.52212e-05
8.36769e-08
1.52269e-05
8.2733e-08
1.5232e-05
8.27504e-08
1.52359e-05
7.93358e-08
7.32888e-08
1.52389e-05
1.59703e-05
1.32227e-08
1.59711e-05
6.08028e-08
1.59619e-05
4.69042e-10
1.59579e-05
-1.18523e-08
1.59584e-05
4.70782e-08
1.59558e-05
5.55956e-08
1.59544e-05
3.60112e-08
1.59555e-05
6.32028e-08
1.59528e-05
9.59745e-08
1.59465e-05
8.55432e-08
1.59439e-05
6.7747e-08
1.59492e-05
7.73515e-08
1.59542e-05
1.02299e-07
1.59534e-05
1.09115e-07
1.59511e-05
9.56205e-08
1.59528e-05
8.19657e-08
1.5958e-05
7.7469e-08
1.59635e-05
7.7281e-08
1.5968e-05
7.48603e-08
7.0007e-08
1.59713e-05
1.67331e-05
1.07671e-08
1.67343e-05
5.95167e-08
1.67261e-05
8.68676e-09
1.67219e-05
-7.59477e-09
1.67221e-05
4.6842e-08
1.67193e-05
5.84406e-08
1.67176e-05
3.77051e-08
1.67199e-05
6.08916e-08
1.67187e-05
9.71152e-08
1.67127e-05
9.16193e-08
1.67091e-05
7.12824e-08
1.67133e-05
7.32009e-08
1.67203e-05
9.52886e-08
1.67221e-05
1.07278e-07
1.67198e-05
9.79707e-08
1.672e-05
8.17101e-08
1.67243e-05
7.32053e-08
1.673e-05
7.15689e-08
1.67348e-05
7.01119e-08
6.62663e-08
1.67385e-05
1.75323e-05
8.79737e-09
1.7534e-05
5.77981e-08
1.75265e-05
1.61852e-08
1.75223e-05
-3.38078e-09
1.75226e-05
4.65626e-08
1.75195e-05
6.15501e-08
1.75171e-05
4.0081e-08
1.75203e-05
5.76835e-08
1.75211e-05
9.63486e-08
1.75158e-05
9.69365e-08
1.75115e-05
7.56167e-08
1.75139e-05
7.07252e-08
1.75218e-05
8.74093e-08
1.75264e-05
1.02666e-07
1.75255e-05
9.8901e-08
1.75245e-05
8.27491e-08
1.75272e-05
7.04625e-08
1.75326e-05
6.61496e-08
1.75375e-05
6.52116e-08
6.22764e-08
1.75415e-05
1.83698e-05
7.34563e-09
1.8372e-05
5.5621e-08
1.8365e-05
2.31254e-08
1.83609e-05
7.9257e-10
1.83616e-05
4.58732e-08
1.83584e-05
6.46946e-08
1.8355e-05
4.3511e-08
1.83586e-05
5.4103e-08
1.83614e-05
9.35095e-08
1.83575e-05
1.00862e-07
1.83526e-05
8.04423e-08
1.83535e-05
6.98817e-08
1.83608e-05
8.01254e-08
1.83676e-05
9.58569e-08
1.8369e-05
9.74947e-08
1.83675e-05
8.42219e-08
1.83686e-05
6.9418e-08
1.83728e-05
6.18742e-08
1.83779e-05
6.01671e-08
5.82843e-08
1.83819e-05
1.92473e-05
6.42668e-09
1.92499e-05
5.29928e-08
1.92435e-05
2.95197e-08
1.92393e-05
5.07768e-09
1.92405e-05
4.46452e-08
1.92378e-05
6.73839e-08
1.92333e-05
4.79811e-08
1.92364e-05
5.10424e-08
1.92412e-05