/*--------------------------------*- C++ -*----------------------------------*\
| =========                 |                                                 |
| \\      /  F ield         | OpenFOAM: The Open Source CFD Toolbox           |
|  \\    /   O peration     | Version:  2106                                  |
|   \\  /    A nd           | Website:  www.openfoam.com                      |
|    \\/     M anipulation  |                                                 |
\*---------------------------------------------------------------------------*/
FoamFile
{
    version     2.0;
    format      ascii;
    arch        "LSB;label=32;scalar=64";
    class       volVectorField;
    location    "0.23";
    object      U;
}
// * * * * * * * * * * * * * * * * * * * * * * * * * * * * * * * * * * * * * //

dimensions      [0 1 -1 0 0 0 0];

internalField   nonuniform List<vector> 
9600
(
(0.867315 -0.00106331 0)
(1.13964 0.00118242 0)
(0.865289 0.000518299 0)
(1.13074 -0.000120244 0)
(0.86345 -0.00187095 0)
(1.14126 -0.00267734 0)
(0.879487 -0.00436748 0)
(1.09599 0.00198433 0)
(0.906573 0.00786758 0)
(1.12278 0.00443346 0)
(0.866738 0.0103389 0)
(1.09358 0.00864262 0)
(0.890246 -0.00134772 0)
(1.06497 -0.00103296 0)
(0.919551 -0.0072621 0)
(1.07156 -0.00824408 0)
(0.902727 -0.00857573 0)
(1.07131 -0.0173169 0)
(0.86653 -0.00337371 0)
(1.07856 -0.0183851 0)
(0.877061 -0.001185 0)
(1.12913 0.00133801 0)
(0.878502 0.000412798 0)
(1.11776 8.37236e-05 0)
(0.879732 -0.00215748 0)
(1.12592 -0.00266208 0)
(0.896002 -0.00407505 0)
(1.08326 0.0019456 0)
(0.923486 0.00729344 0)
(1.10191 0.00513498 0)
(0.896412 0.0106133 0)
(1.05911 0.00845491 0)
(0.934902 -0.000920414 0)
(1.02417 -0.00155874 0)
(0.96815 -0.00739729 0)
(1.01945 -0.00801198 0)
(0.971419 -0.00824367 0)
(0.997649 -0.0170409 0)
(0.96328 -0.00240748 0)
(0.971512 -0.0195409 0)
(0.895406 -0.00128949 0)
(1.10867 0.00145926 0)
(0.902068 0.000371587 0)
(1.09448 0.000204679 0)
(0.907436 -0.00239333 0)
(1.09873 -0.00264527 0)
(0.924882 -0.0037634 0)
(1.0587 0.00171162 0)
(0.951823 0.00691805 0)
(1.06871 0.00567934 0)
(0.938328 0.0110778 0)
(1.0233 0.008032 0)
(0.972293 -0.000504697 0)
(0.998262 -0.00210934 0)
(0.989725 -0.00726058 0)
(0.998752 -0.00808663 0)
(0.989255 -0.00793903 0)
(0.984806 -0.0163548 0)
(0.977656 -0.002959 0)
(0.975607 -0.0155137 0)
(0.919121 -0.00135238 0)
(1.08194 0.00149962 0)
(0.929957 0.000385052 0)
(1.06636 0.000244887 0)
(0.938394 -0.00251297 0)
(1.06683 -0.00271236 0)
(0.955505 -0.00345714 0)
(1.0322 0.0014618 0)
(0.977317 0.00679762 0)
(1.03863 0.00589479 0)
(0.970479 0.0115952 0)
(1.00523 0.00766893 0)
(0.990246 -0.000228243 0)
(0.992679 -0.00233197 0)
(0.993933 -0.00721958 0)
(0.995229 -0.00816862 0)
(0.991351 -0.00752717 0)
(0.985245 -0.0161726 0)
(0.978742 -0.00260975 0)
(0.978262 -0.0139208 0)
(0.94373 -0.00137946 0)
(1.05448 0.00147693 0)
(0.955801 0.000440014 0)
(1.04008 0.000227094 0)
(0.964666 -0.00255557 0)
(1.03853 -0.00282991 0)
(0.978417 -0.00316498 0)
(1.01267 0.00127905 0)
(0.992324 0.00671618 0)
(1.01909 0.0059851 0)
(0.987672 0.0119585 0)
(1.00102 0.00748816 0)
(0.997619 -6.96207e-05 0)
(0.994396 -0.00240233 0)
(0.995553 -0.00713028 0)
(0.99445 -0.00819488 0)
(0.992574 -0.00725366 0)
(0.985952 -0.0157644 0)
(0.980175 -0.00248422 0)
(0.978999 -0.0126879 0)
(0.965132 -0.00137689 0)
(1.03135 0.0014235 0)
(0.97547 0.000511821 0)
(1.02044 0.00018135 0)
(0.982443 -0.00255539 0)
(1.0186 -0.00293666 0)
(0.990995 -0.00293837 0)
(1.00198 0.00116347 0)
(0.998063 0.006633 0)
(1.00868 0.00604671 0)
(0.9947 0.0121166 0)
(1.00206 0.00740448 0)
(1.00148 3.36157e-05 0)
(0.997077 -0.00240384 0)
(0.997507 -0.00695475 0)
(0.994608 -0.00821791 0)
(0.993348 -0.00702086 0)
(0.986997 -0.0152692 0)
(0.981383 -0.00252079 0)
(0.980183 -0.0113577 0)
(0.980976 -0.00135511 0)
(1.01517 0.00136573 0)
(0.988056 0.000574921 0)
(1.00861 0.000133601 0)
(0.992357 -0.00253143 0)
(1.00706 -0.00300709 0)
(0.995806 -0.00279103 0)
(0.997226 0.0011049 0)
(0.99892 0.0065627 0)
(1.00344 0.00607555 0)
(0.997022 0.0121282 0)
(1.00391 0.00732323 0)
(1.00418 0.000127057 0)
(0.999573 -0.00237576 0)
(0.999489 -0.0067401 0)
(0.995625 -0.00819061 0)
(0.993889 -0.00680738 0)
(0.988128 -0.0147261 0)
(0.982418 -0.0026272 0)
(0.981408 -0.00997791 0)
(0.991018 -0.00132606 0)
(1.00569 0.00131783 0)
(0.994965 0.000617219 0)
(1.0029 9.61513e-05 0)
(0.997122 -0.00249332 0)
(1.0014 -0.00303895 0)
(0.996591 -0.00269465 0)
(0.99516 0.00107646 0)
(0.998218 0.00650383 0)
(1.00063 0.00607093 0)
(0.997785 0.0120449 0)
(1.00544 0.00721107 0)
(1.0062 0.000213649 0)
(1.00173 -0.00234188 0)
(1.00132 -0.00649318 0)
(0.997003 -0.00809847 0)
(0.994576 -0.00661445 0)
(0.989156 -0.0141291 0)
(0.983465 -0.00276398 0)
(0.982499 -0.00860983 0)
(0.996461 -0.00129719 0)
(1.00105 0.00128185 0)
(0.998305 0.000639468 0)
(1.00076 6.79565e-05 0)
(0.999272 -0.00244366 0)
(0.998949 -0.00303758 0)
(0.995958 -0.00261957 0)
(0.994021 0.00105229 0)
(0.997463 0.00645325 0)
(0.999055 0.00603794 0)
(0.998288 0.0118929 0)
(1.00662 0.00706971 0)
(1.00766 0.000282303 0)
(1.00342 -0.00229874 0)
(1.00287 -0.00622549 0)
(0.998365 -0.00795754 0)
(0.995394 -0.00643616 0)
(0.990137 -0.0134652 0)
(0.984528 -0.00291718 0)
(0.983521 -0.00730243 0)
(0.998957 -0.00127037 0)
(0.999138 0.00125281 0)
(0.999767 0.000648231 0)
(1.00021 4.34199e-05 0)
(1.00029 -0.00238278 0)
(0.997999 -0.00301057 0)
(0.995147 -0.00254805 0)
(0.993243 0.00102141 0)
(0.997049 0.00640516 0)
(0.99824 0.00597926 0)
(0.998869 0.01169 0)
(1.00754 0.00690889 0)
(1.00861 0.000338935 0)
(1.00458 -0.00224053 0)
(1.004 -0.00596423 0)
(0.999515 -0.00776763 0)
(0.996194 -0.00626497 0)
(0.991093 -0.012739 0)
(0.985582 -0.00307995 0)
(0.984517 -0.00608009 0)
(0.999879 -0.00124453 0)
(0.998518 0.00122499 0)
(1.00034 0.000650146 0)
(1.00021 1.80497e-05 0)
(1.0008 -0.00231225 0)
(0.997704 -0.00296503 0)
(0.994574 -0.00247099 0)
(0.992723 0.0009812 0)
(0.996911 0.0063524 0)
(0.997935 0.00589886 0)
(0.999456 0.01145 0)
(1.00815 0.00674031 0)
(1.0091 0.000391111 0)
(1.00519 -0.00216731 0)
(1.00467 -0.00572213 0)
(1.00036 -0.00752981 0)
(0.996861 -0.00610354 0)
(0.991983 -0.0119706 0)
(0.986601 -0.00323592 0)
(0.985478 -0.00495323 0)
(1.00009 -0.00121822 0)
(0.998425 0.00119511 0)
(1.00049 0.000649664 0)
(1.00034 -9.9414e-06 0)
(1.001 -0.00223466 0)
(0.997706 -0.0029079 0)
(0.994313 -0.00238554 0)
(0.992439 0.000933274 0)
(0.99686 0.00629154 0)
(0.997926 0.00580219 0)
(0.999885 0.0111837 0)
(1.0084 0.00657685 0)
(1.00918 0.000434698 0)
(1.00534 -0.00207688 0)
(1.00493 -0.00549911 0)
(1.00088 -0.00725838 0)
(0.997341 -0.00595867 0)
(0.992752 -0.0111825 0)
(0.987548 -0.00335411 0)
(0.986374 -0.00393766 0)
(1.00003 -0.00119072 0)
(0.998529 0.00116216 0)
(1.00044 0.00064919 0)
(1.00049 -4.03362e-05 0)
(1.001 -0.00215233 0)
(0.997844 -0.00284619 0)
(0.994308 -0.00229171 0)
(0.99235 0.000883451 0)
(0.996756 0.00622136 0)
(0.998036 0.0056956 0)
(1.00007 0.0108988 0)
(1.00829 0.00642698 0)
(1.00898 0.000466673 0)
(1.00519 -0.00196506 0)
(1.00488 -0.00529988 0)
(1.00115 -0.00696323 0)
(0.997629 -0.00582761 0)
(0.993365 -0.0104001 0)
(0.98839 -0.00340688 0)
(0.987172 -0.00304806 0)
(0.999901 -0.00116188 0)
(0.998692 0.00112612 0)
(1.00033 0.00064992 0)
(1.00062 -7.25215e-05 0)
(1.00088 -0.00206677 0)
(0.998022 -0.00278496 0)
(0.994459 -0.00219059 0)
(0.992398 0.00083889 0)
(0.996578 0.00614216 0)
(0.998155 0.00558308 0)
(1.00005 0.0106041 0)
(1.00792 0.00628742 0)
(1.00864 0.000484298 0)
(1.00488 -0.00183149 0)
(1.00466 -0.00512672 0)
(1.00124 -0.00665508 0)
(0.997757 -0.0056937 0)
(0.993821 -0.00964424 0)
(0.989111 -0.00338867 0)
(0.987859 -0.00228681 0)
(0.999786 -0.00113175 0)
(0.99885 0.0010871 0)
(1.00021 0.000652637 0)
(1.00072 -0.000105646 0)
(1.00072 -0.00197889 0)
(0.998182 -0.00272629 0)
(0.994667 -0.00208419 0)
(0.992528 0.000804219 0)
(0.996385 0.00605481 0)
(0.998246 0.00546902 0)
(0.999932 0.0103003 0)
(1.00743 0.00616095 0)
(1.00827 0.000482383 0)
(1.00454 -0.00167795 0)
(1.00439 -0.00497067 0)
(1.00125 -0.00634691 0)
(0.997777 -0.00553825 0)
(0.994143 -0.00892851 0)
(0.989718 -0.00331103 0)
(0.988442 -0.00164125 0)
(0.999708 -0.00110037 0)
(0.998973 0.00104527 0)
(1.00011 0.000657332 0)
(1.00078 -0.000139364 0)
(1.00059 -0.00188891 0)
(0.998299 -0.00267065 0)
(0.994867 -0.00197412 0)
(0.992698 0.000780458 0)
(0.996245 0.00595965 0)
(0.998312 0.0053586 0)
(0.999796 0.00998306 0)
(1.00694 0.00605329 0)
(1.00791 0.000460743 0)
(1.00424 -0.00150773 0)
(1.00411 -0.0048193 0)
(1.00122 -0.00604901 0)
(0.997737 -0.00534301 0)
(0.994373 -0.00826451 0)
(0.990238 -0.00318388 0)
(0.988946 -0.00108858 0)
(0.999666 -0.00106773 0)
(0.999057 0.00100063 0)
(1.00005 0.000664155 0)
(1.0008 -0.000173548 0)
(1.00049 -0.00179707 0)
(0.998373 -0.00261613 0)
(0.995033 -0.00186393 0)
(0.99288 0.000767038 0)
(0.996189 0.00585467 0)
(0.998372 0.00525677 0)
(0.999691 0.00964998 0)
(1.00649 0.00595982 0)
(1.00758 0.000421574 0)
(1.00398 -0.00132592 0)
(1.00387 -0.00466023 0)
(1.00119 -0.00577039 0)
(0.997672 -0.00510027 0)
(0.994547 -0.00764542 0)
(0.990706 -0.00302212 0)
(0.989396 -0.000607861 0)
(0.99965 -0.00103374 0)
(0.999113 0.000953036 0)
(1.00001 0.00067323 0)
(1.00079 -0.000208146 0)
(1.00043 -0.0017038 0)
(0.998419 -0.00256086 0)
(0.995165 -0.00175414 0)
(0.993066 0.000765276 0)
(0.99621 0.00573663 0)
(0.998439 0.00516611 0)
(0.999623 0.00930142 0)
(1.0061 0.00587796 0)
(1.00728 0.000369041 0)
(1.00376 -0.00114318 0)
(1.00364 -0.00447765 0)
(1.00116 -0.00551794 0)
(0.997603 -0.00481555 0)
(0.994693 -0.00704981 0)
(0.991149 -0.00285081 0)
(0.989815 -0.000187871 0)
(0.99965 -0.000998335 0)
(0.999151 0.000902448 0)
(0.999979 0.00068402 0)
(1.00077 -0.000242718 0)
(1.00039 -0.00161074 0)
(0.99845 -0.0025022 0)
(0.995275 -0.00164653 0)
(0.993252 0.000775 0)
(0.996281 0.00560332 0)
(0.998514 0.00508769 0)
(0.999582 0.00893788 0)
(1.00574 0.00580747 0)
(1.00699 0.000315047 0)
(1.00355 -0.000971422 0)
(1.00344 -0.00426075 0)
(1.00114 -0.0052911 0)
(0.997541 -0.00449711 0)
(0.994825 -0.00646897 0)
(0.991583 -0.002683 0)
(0.990222 0.000179563 0)
(0.999657 -0.000961662 0)
(0.999182 0.000849263 0)
(0.999959 0.000695732 0)
(1.00073 -0.000276111 0)
(1.00036 -0.00151907 0)
(0.998475 -0.00243856 0)
(0.995376 -0.00154531 0)
(0.993438 0.00079554 0)
(0.996379 0.00545437 0)
(0.998596 0.00502066 0)
(0.999557 0.00856268 0)
(1.0054 0.0057373 0)
(1.00671 0.000267025 0)
(1.00334 -0.000819146 0)
(1.00324 -0.0040081 0)
(1.00113 -0.00508327 0)
(0.997491 -0.0041615 0)
(0.994949 -0.00589547 0)
(0.992018 -0.00251997 0)
(0.990624 0.000504457 0)
(0.999667 -0.000923667 0)
(0.99921 0.000793138 0)
(0.999942 0.000708836 0)
(1.0007 -0.000308423 0)
(1.00033 -0.00142815 0)
(0.998497 -0.00236976 0)
(0.995474 -0.00145029 0)
(0.993626 0.000827489 0)
(0.996489 0.00528865 0)
(0.998681 0.00496523 0)
(0.999541 0.00817511 0)
(1.00506 0.00566739 0)
(1.00643 0.000230891 0)
(1.00315 -0.000686881 0)
(1.00304 -0.00372883 0)
(1.00112 -0.00488028 0)
(0.997459 -0.00382707 0)
(0.995066 -0.00531185 0)
(0.992455 -0.00237787 0)
(0.99103 0.000793542 0)
(0.999678 -0.000884294 0)
(0.999238 0.000733984 0)
(0.999926 0.00072294 0)
(1.00066 -0.000338523 0)
(1.00031 -0.00133982 0)
(0.998518 -0.00229221 0)
(0.995573 -0.00136446 0)
(0.993816 0.0008715 0)
(0.996606 0.00510793 0)
(0.998766 0.00491771 0)
(0.999532 0.00778468 0)
(1.00473 0.00558994 0)
(1.00615 0.000209067 0)
(1.00296 -0.000581624 0)
(1.00283 -0.00342445 0)
(1.00111 -0.00466762 0)
(0.997447 -0.00350416 0)
(0.995174 -0.00472257 0)
(0.992891 -0.00224558 0)
(0.991448 0.0010375 0)
(0.99969 -0.000843984 0)
(0.999267 0.000673146 0)
(0.99991 0.000735937 0)
(1.00062 -0.000363873 0)
(1.00028 -0.00125757 0)
(0.99854 -0.00220218 0)
(0.995674 -0.00129158 0)
(0.994008 0.000928929 0)
(0.996725 0.00491666 0)
(0.99885 0.0048707 0)
(0.999527 0.00740555 0)
(1.0044 0.00549287 0)
(1.00586 0.000213272 0)
(1.00277 -0.000497799 0)
(1.00262 -0.00309968 0)
(1.00111 -0.00444202 0)
(0.997457 -0.00319367 0)
(0.995275 -0.00413288 0)
(0.993322 -0.00210051 0)
(0.991879 0.00121672 0)
(0.999701 -0.000802779 0)
(0.999298 0.00061055 0)
(0.999895 0.000747939 0)
(1.00059 -0.000384407 0)
(1.00026 -0.00118184 0)
(0.998562 -0.00210057 0)
(0.995778 -0.0012279 0)
(0.994201 0.000992774 0)
(0.996846 0.00472045 0)
(0.998931 0.00482018 0)
(0.999524 0.00704277 0)
(1.00407 0.00537717 0)
(1.00558 0.000251113 0)
(1.0026 -0.000423492 0)
(1.00241 -0.00276741 0)
(1.00111 -0.00420413 0)
(0.997491 -0.00290071 0)
(0.995369 -0.003546 0)
(0.99374 -0.0019386 0)
(0.992327 0.0013286 0)
(0.999712 -0.000760679 0)
(0.999331 0.000546547 0)
(0.999878 0.00075785 0)
(1.00055 -0.000397898 0)
(1.00023 -0.00111409 0)
(0.998584 -0.00198645 0)
(0.995886 -0.00117396 0)
(0.994396 0.00106236 0)
(0.99697 0.00451962 0)
(0.999011 0.00475819 0)
(0.999523 0.00670405 0)
(1.00375 0.00523472 0)
(1.00529 0.000310199 0)
(1.00243 -0.000354261 0)
(1.00221 -0.00243443 0)
(1.00111 -0.00395422 0)
(0.997551 -0.00262292 0)
(0.995459 -0.00297635 0)
(0.99414 -0.00175064 0)
(0.992793 0.00137771 0)
(0.999723 -0.000718332 0)
(0.999365 0.00048273 0)
(0.999862 0.0007637 0)
(1.00052 -0.000402972 0)
(1.00021 -0.00105406 0)
(0.998607 -0.00186045 0)
(0.995996 -0.00112719 0)
(0.994591 0.00113687 0)
(0.997096 0.00432009 0)
(0.999089 0.00467598 0)
(0.999522 0.00639128 0)
(1.00344 0.00507178 0)
(1.005 0.000383927 0)
(1.00228 -0.000281203 0)
(1.002 -0.00209754 0)
(1.00111 -0.00368667 0)
(0.997637 -0.00236146 0)
(0.995548 -0.00242918 0)
(0.994516 -0.00152884 0)
(0.993276 0.00137432 0)
(0.999734 -0.000675795 0)
(0.999402 0.000418734 0)
(0.999846 0.000764809 0)
(1.00049 -0.000398774 0)
(1.0002 -0.00100389 0)
(0.99863 -0.00172258 0)
(0.996111 -0.00108549 0)
(0.994787 0.00120669 0)
(0.997223 0.00413695 0)
(0.999167 0.00456896 0)
(0.99952 0.00610672 0)
(1.00313 0.00490124 0)
(1.00471 0.000467495 0)
(1.00213 -0.000202342 0)
(1.00179 -0.00175854 0)
(1.00111 -0.00339798 0)
(0.997749 -0.0021232 0)
(0.995639 -0.00190795 0)
(0.994861 -0.00127054 0)
(0.993772 0.00133418 0)
(0.999744 -0.000633054 0)
(0.999441 0.000355966 0)
(0.999831 0.000758715 0)
(1.00045 -0.000382089 0)
(1.00018 -0.000964256 0)
(0.998653 -0.0015751 0)
(0.99623 -0.00104765 0)
(0.994986 0.0012701 0)
(0.99735 0.00397202 0)
(0.999245 0.00443714 0)
(0.999519 0.00584552 0)
(1.00283 0.00473052 0)
(1.00443 0.000546789 0)
(1.00199 -0.000123153 0)
(1.00159 -0.00142672 0)
(1.00109 -0.00309029 0)
(0.997884 -0.00190339 0)
(0.995738 -0.00142077 0)
(0.995171 -0.000985222 0)
(0.994273 0.00126785 0)
(0.999754 -0.000591289 0)
(0.999482 0.000296599 0)
(0.999817 0.000745257 0)
(1.00042 -0.000355463 0)
(1.00017 -0.000929502 0)
(0.998677 -0.00142499 0)
(0.996352 -0.00100472 0)
(0.995187 0.0013186 0)
(0.997476 0.00382431 0)
(0.999323 0.00428619 0)
(0.999518 0.00559993 0)
(1.00254 0.00456789 0)
(1.00415 0.000626454 0)
(1.00186 -4.10858e-05 0)
(1.0014 -0.00110139 0)
(1.00107 -0.00276533 0)
(0.998041 -0.00169937 0)
(0.995849 -0.000979296 0)
(0.995445 -0.000676082 0)
(0.994774 0.00119039 0)
(0.999763 -0.000550232 0)
(0.999524 0.000240493 0)
(0.999806 0.000722812 0)
(1.00038 -0.000318446 0)
(1.00016 -0.000902015 0)
(0.9987 -0.00127286 0)
(0.996476 -0.000953747 0)
(0.99539 0.00134181 0)
(0.997603 0.00369879 0)
(0.999402 0.00412396 0)
(0.99952 0.00536075 0)
(1.00225 0.00441997 0)
(1.00387 0.000705422 0)
(1.00175 4.16176e-05 0)
(1.00122 -0.00077937 0)
(1.00105 -0.00242335 0)
(0.998216 -0.00150953 0)
(0.995977 -0.000588466 0)
(0.995682 -0.000338313 0)
(0.99526 0.00112675 0)
(0.999772 -0.000510368 0)
(0.999567 0.000189882 0)
(0.999798 0.000688978 0)
(1.00034 -0.000269868 0)
(1.00015 -0.000878179 0)
(0.998724 -0.00112395 0)
(0.9966 -0.000890022 0)
(0.995598 0.00134428 0)
(0.997729 0.00359017 0)
(0.99948 0.00395602 0)
(0.999526 0.00511394 0)
(1.00197 0.00428969 0)
(1.00359 0.000782709 0)
(1.00165 0.00012109 0)
(1.00105 -0.000471333 0)
(1.001 -0.00206385 0)
(0.998405 -0.00132881 0)
(0.996127 -0.000251439 0)
(0.995886 1.16482e-05 0)
(0.995719 0.00109913 0)
(0.999781 -0.000472359 0)
(0.99961 0.000145082 0)
(0.999793 0.00064707 0)
(1.00031 -0.000216143 0)
(1.00014 -0.000852843 0)
(0.998749 -0.000982289 0)
(0.996723 -0.000806834 0)
(0.995808 0.00132653 0)
(0.997855 0.00348867 0)
(0.999557 0.00379589 0)
(0.999537 0.00486118 0)
(1.00171 0.00417003 0)
(1.00332 0.000878457 0)
(1.00157 0.000201159 0)
(1.00089 -0.000184975 0)
(1.00095 -0.00169149 0)
(0.9986 -0.00114469 0)
(0.996303 2.96716e-05 0)
(0.996064 0.000352673 0)
(0.996136 0.00111841 0)
(0.99979 -0.000436055 0)
(0.999653 0.000108211 0)
(0.99979 0.000595022 0)
(1.00027 -0.000158984 0)
(1.00014 -0.000825641 0)
(0.998777 -0.000852448 0)
(0.996843 -0.000706447 0)
(0.99602 0.00129679 0)
(0.997983 0.00338746 0)
(0.999631 0.00365407 0)
(0.999553 0.00461283 0)
(1.00145 0.00405064 0)
(1.00306 0.000989311 0)
(1.0015 0.000279665 0)
(1.00075 7.64503e-05 0)
(1.00089 -0.00131728 0)
(0.998796 -0.000951682 0)
(0.996505 0.000268268 0)
(0.996226 0.000676448 0)
(0.996502 0.00119776 0)
(0.999798 -0.000402361 0)
(0.999694 7.92366e-05 0)
(0.999791 0.000536264 0)
(1.00024 -0.00010032 0)
(1.00013 -0.000791346 0)
(0.998808 -0.000738302 0)
(0.996961 -0.000590853 0)
(0.996232 0.001256 0)
(0.998114 0.00328098 0)
(0.999703 0.00352643 0)
(0.999574 0.00437451 0)
(1.00121 0.00392953 0)
(1.0028 0.00110908 0)
(1.00144 0.000365118 0)
(1.00064 0.000317275 0)
(1.00082 -0.000948165 0)
(0.998989 -0.000747842 0)
(0.996731 0.000471805 0)
(0.996382 0.0009685 0)
(0.996812 0.00133417 0)
(0.999806 -0.000370751 0)
(0.999734 5.88308e-05 0)
(0.999795 0.000469992 0)
(1.0002 -4.51159e-05 0)
(1.00013 -0.000744192 0)
(0.998843 -0.000642576 0)
(0.997075 -0.000461029 0)
(0.996442 0.00121117 0)
(0.998247 0.00315969 0)
(0.999773 0.00341537 0)
(0.999599 0.00414614 0)
(1.00099 0.00380178 0)
(1.00254 0.0012319 0)
(1.00139 0.000462639 0)
(1.00054 0.000540046 0)
(1.00075 -0.000590755 0)
(0.999174 -0.000538814 0)
(0.996978 0.000640058 0)
(0.996542 0.00121871 0)
(0.997068 0.00150852 0)
(0.999814 -0.000341943 0)
(0.999772 4.82306e-05 0)
(0.9998 0.000398811 0)
(1.00017 1.42398e-06 0)
(1.00013 -0.000682169 0)
(0.998883 -0.000562161 0)
(0.997188 -0.000326383 0)
(0.996647 0.0011812 0)
(0.998385 0.00302264 0)
(0.999843 0.00331115 0)
(0.999626 0.00393395 0)
(1.00079 0.00367805 0)
(1.0023 0.00135124 0)
(1.00135 0.00056408 0)
(1.00047 0.00074108 0)
(1.00067 -0.000243614 0)
(0.999349 -0.000333821 0)
(0.997242 0.000785882 0)
(0.996715 0.00142887 0)
(0.997279 0.00170076 0)
(0.999821 -0.000315582 0)
(0.999806 4.43254e-05 0)
(0.999807 0.000329105 0)
(1.00014 3.29794e-05 0)
(1.00012 -0.0006049 0)
(0.998926 -0.000491091 0)
(0.997299 -0.000193684 0)
(0.996845 0.00116605 0)
(0.998524 0.00287664 0)
(0.999913 0.00320466 0)
(0.999657 0.0037543 0)
(1.0006 0.00355696 0)
(1.00206 0.00146561 0)
(1.00131 0.000669086 0)
(1.00042 0.000919559 0)
(1.00059 9.98148e-05 0)
(0.999509 -0.000119094 0)
(0.99752 0.000919278 0)
(0.996906 0.00160319 0)
(0.997459 0.00188435 0)
(0.999828 -0.000291021 0)
(0.999838 4.71782e-05 0)
(0.999814 0.0002607 0)
(1.00011 5.15998e-05 0)
(1.00012 -0.000514852 0)
(0.998971 -0.000428625 0)
(0.99741 -6.90263e-05 0)
(0.997035 0.00117136 0)
(0.998664 0.00272413 0)
(0.999987 0.00309172 0)
(0.999689 0.00360163 0)
(1.00043 0.0034406 0)
(1.00183 0.00156845 0)
(1.00129 0.000776679 0)
(1.0004 0.00107951 0)
(1.00051 0.000430627 0)
(0.999651 0.000106544 0)
(0.997805 0.00102917 0)
(0.997114 0.00173883 0)
(0.997624 0.00203681 0)
(0.999835 -0.000268713 0)
(0.999866 5.38294e-05 0)
(0.99982 0.000201174 0)
(1.00009 5.17455e-05 0)
(1.00011 -0.00041726 0)
(0.999016 -0.000364809 0)
(0.997522 3.7866e-05 0)
(0.997216 0.00118986 0)
(0.9988 0.00258356 0)
(1.00007 0.00296356 0)
(0.999726 0.00345542 0)
(1.00027 0.0033488 0)
(1.00162 0.00166449 0)
(1.00127 0.000878847 0)
(1.0004 0.00122448 0)
(1.00044 0.000736081 0)
(0.999771 0.000336455 0)
(0.998089 0.00112007 0)
(0.997339 0.0018416 0)
(0.997795 0.00214445 0)
(0.999841 -0.000247648 0)
(0.99989 6.31732e-05 0)
(0.999823 0.00015294 0)
(1.00007 3.32575e-05 0)
(1.00011 -0.000319137 0)
(0.99906 -0.000293962 0)
(0.997633 0.000123012 0)
(0.997389 0.00121535 0)
(0.99893 0.00245722 0)
(1.00015 0.00282758 0)
(0.99977 0.00331304 0)
(1.00013 0.00328009 0)
(1.00141 0.00175918 0)
(1.00126 0.000969809 0)
(1.00042 0.00134309 0)
(1.00038 0.00101969 0)
(0.99987 0.00057094 0)
(0.998367 0.00120719 0)
(0.997575 0.00192967 0)
(0.997976 0.00221067 0)
(0.999847 -0.000227032 0)
(0.999911 7.3037e-05 0)
(0.999823 0.000117337 0)
(1.00006 -1.33818e-06 0)
(1.0001 -0.000226799 0)
(0.999101 -0.000209532 0)
(0.997744 0.000188674 0)
(0.997554 0.00124059 0)
(0.999053 0.00235157 0)
(1.00023 0.00268338 0)
(0.999825 0.00317119 0)
(1 0.00321971 0)
(1.0012 0.00186168 0)
(1.00124 0.00105588 0)
(1.00048 0.00142935 0)
(1.00033 0.00128452 0)
(0.999945 0.000810429 0)
(0.998635 0.00127952 0)
(0.997816 0.0020097 0)
(0.998161 0.00226224 0)
(0.999852 -0.000206499 0)
(0.99993 8.07494e-05 0)
(0.999818 9.81294e-05 0)
(1.00004 -4.88262e-05 0)
(1.0001 -0.000149634 0)
(0.999138 -0.000109749 0)
(0.997851 0.000246133 0)
(0.997713 0.00125286 0)
(0.999166 0.00227145 0)
(1.00031 0.00254747 0)
(0.999889 0.00301971 0)
(0.999898 0.00315592 0)
(1.001 0.00197925 0)
(1.00123 0.00115209 0)
(1.00055 0.00148102 0)
(1.0003 0.0015095 0)
(0.999994 0.00106846 0)
(0.998889 0.00134829 0)
(0.998065 0.00206343 0)
(0.99834 0.00232361 0)
(0.999856 -0.000185309 0)
(0.999947 8.47181e-05 0)
(0.999807 9.4388e-05 0)
(1.00003 -0.000100544 0)
(1.00011 -9.14283e-05 0)
(0.999172 5.89672e-06 0)
(0.997953 0.000301429 0)
(0.997868 0.00124756 0)
(0.999272 0.00220932 0)
(1.00038 0.0024343 0)
(0.999961 0.00285204 0)
(0.999815 0.003088 0)
(1.00081 0.00210652 0)
(1.0012 0.00126039 0)
(1.00064 0.00150804 0)
(1.00031 0.00167633 0)
(1.00002 0.0013291 0)
(0.999112 0.00145292 0)
(0.998324 0.00208617 0)
(0.998511 0.00239665 0)
(0.999859 -0.000162613 0)
(0.999961 8.32199e-05 0)
(0.999791 0.000105338 0)
(1.00002 -0.000149966 0)
(1.00012 -6.01807e-05 0)
(0.999202 0.000131516 0)
(0.998045 0.000366853 0)
(0.998018 0.00121885 0)
(0.999371 0.00215258 0)
(1.00044 0.00234498 0)
(1.00004 0.00268311 0)
(0.999761 0.00300175 0)
(1.00062 0.00222692 0)
(1.00115 0.00139359 0)
(1.00074 0.0015305 0)
(1.00035 0.00178235 0)
(1.00005 0.00156332 0)
(0.999302 0.00159509 0)
(0.998582 0.00210077 0)
(0.998678 0.00246241 0)
(0.999861 -0.000137912 0)
(0.999975 7.41809e-05 0)
(0.999769 0.00012771 0)
(1 -0.000190381 0)
(1.00014 -5.46531e-05 0)
(0.999234 0.000254488 0)
(0.998123 0.000451059 0)
(0.99816 0.00117618 0)
(0.999468 0.00208132 0)
(1.00049 0.00228558 0)
(1.00011 0.00253696 0)
(0.999732 0.00288563 0)
(1.00046 0.00232912 0)
(1.00108 0.00155117 0)
(1.00084 0.00156455 0)
(1.00041 0.00183526 0)
(1.00008 0.00174941 0)
(0.999458 0.00174904 0)
(0.99883 0.00212871 0)
(0.998848 0.00251207 0)
(0.999862 -0.000110909 0)
(0.999989 5.76328e-05 0)
(0.999744 0.000160203 0)
(0.999981 -0.000215288 0)
(1.00017 -7.58373e-05 0)
(0.999269 0.000364839 0)
(0.998187 0.000559314 0)
(0.998289 0.00113174 0)
(0.999566 0.00199316 0)
(1.00054 0.00225139 0)
(1.00018 0.0024185 0)
(0.999727 0.00274641 0)
(1.00032 0.00239715 0)
(1.001 0.00171619 0)
(1.00091 0.00162941 0)
(1.0005 0.00186773 0)
(1.00014 0.00186454 0)
(0.999595 0.00188654 0)
(0.999062 0.00216416 0)
(0.999025 0.00254563 0)
(0.999862 -8.1158e-05 0)
(1 3.27626e-05 0)
(0.999716 0.000198742 0)
(0.99995 -0.000219117 0)
(1.00021 -0.000116917 0)
(0.999314 0.000451712 0)
(0.998236 0.000689658 0)
(0.9984 0.00109826 0)
(0.999667 0.00188009 0)
(1.00057 0.0022187 0)
(1.00023 0.00234213 0)
(0.999736 0.0026052 0)
(1.00022 0.00241165 0)
(1.00092 0.0018753 0)
(1.00096 0.00172503 0)
(1.00059 0.00190205 0)
(1.00021 0.00193158 0)
(0.999722 0.00198606 0)
(0.999278 0.00220533 0)
(0.999221 0.00255135 0)
(0.999861 -4.89844e-05 0)
(1.00002 2.20916e-06 0)
(0.999689 0.000238266 0)
(0.999911 -0.000200142 0)
(1.00024 -0.000171688 0)
(0.999371 0.000507209 0)
(0.998274 0.000833234 0)
(0.998486 0.0010841 0)
(0.999766 0.00174291 0)
(1.00062 0.00216927 0)
(1.00026 0.00230973 0)
(0.999747 0.00248578 0)
(1.00014 0.00237815 0)
(1.00084 0.00199722 0)
(1.00099 0.00184218 0)
(1.00066 0.00195137 0)
(1.00028 0.00198649 0)
(0.999846 0.00204789 0)
(0.999476 0.00224848 0)
(0.999439 0.00252015 0)
(0.99986 -1.45504e-05 0)
(1.00003 -3.42945e-05 0)
(0.999665 0.000275399 0)
(0.99986 -0.000152845 0)
(1.00028 -0.000232154 0)
(0.999446 0.000523816 0)
(0.998305 0.000977666 0)
(0.998543 0.00110698 0)
(0.99986 0.00159729 0)
(1.00068 0.00208813 0)
(1.00029 0.00230334 0)
(0.999749 0.0024096 0)
(1.00009 0.00231238 0)
(1.00079 0.00205931 0)
(1.00101 0.00195917 0)
(1.00072 0.00203343 0)
(1.00035 0.00203658 0)
(0.999965 0.00207977 0)
(0.999652 0.00227816 0)
(0.99967 0.00246654 0)
(0.999858 2.15777e-05 0)
(1.00005 -7.33499e-05 0)
(0.999648 0.000302699 0)
(0.999801 -8.24843e-05 0)
(1.00031 -0.00028515 0)
(0.999537 0.000502735 0)
(0.998339 0.00110678 0)
(0.998569 0.00116852 0)
(0.999939 0.00145979 0)
(1.00075 0.00196779 0)
(1.00032 0.00229777 0)
(0.999734 0.00238383 0)
(1.00004 0.00225257 0)
(1.00075 0.00206227 0)
(1.00103 0.00203593 0)
(1.00076 0.00213286 0)
(1.0004 0.00210455 0)
(1.00008 0.00208834 0)
(0.999808 0.00229686 0)
(0.999889 0.00242146 0)
(0.999856 5.65537e-05 0)
(1.00007 -0.000109737 0)
(0.999639 0.000318022 0)
(0.999734 4.70763e-06 0)
(1.00034 -0.00032474 0)
(0.999648 0.000441467 0)
(0.998383 0.00121128 0)
(0.998566 0.00126325 0)
(0.999993 0.00135146 0)
(1.00084 0.00180834 0)
(1.00036 0.00226826 0)
(0.99971 0.00239568 0)
(0.999978 0.00221863 0)
(1.00073 0.00202802 0)
(1.00107 0.00205624 0)
(1.00081 0.0022134 0)
(1.00041 0.00221924 0)
(1.00017 0.00209978 0)
(0.999952 0.0022831 0)
(1.00007 0.00240905 0)
(0.999854 9.08251e-05 0)
(1.00009 -0.000141281 0)
(0.999642 0.000315898 0)
(0.999662 0.00010623 0)
(1.00035 -0.000335654 0)
(0.999773 0.000353488 0)
(0.998446 0.00127815 0)
(0.99854 0.00138269 0)
(1.00001 0.0012809 0)
(1.00093 0.00162604 0)
(1.00044 0.00219951 0)
(0.999682 0.00242546 0)
(0.999897 0.00221946 0)
(1.0007 0.0019869 0)
(1.00113 0.00202371 0)
(1.00088 0.00224244 0)
(1.00041 0.00234414 0)
(1.00021 0.00217053 0)
(1.00009 0.00222708 0)
(1.00021 0.00241037 0)
(0.999854 0.000122446 0)
(1.00011 -0.000163725 0)
(0.999658 0.000297386 0)
(0.99959 0.000219093 0)
(1.00034 -0.000316121 0)
(0.999911 0.000249457 0)
(0.998535 0.00129783 0)
(0.998499 0.00150957 0)
(0.99999 0.0012592 0)
(1.00103 0.00144886 0)
(1.00054 0.00207866 0)
(0.999668 0.00244829 0)
(0.999797 0.00226334 0)
(1.00065 0.00196294 0)
(1.0012 0.00195772 0)
(1.00099 0.0022155 0)
(1.00043 0.00241968 0)
(1.00019 0.00230869 0)
(1.00019 0.00219333 0)
(1.00034 0.00237645 0)
(0.999855 0.000148357 0)
(1.00013 -0.000172556 0)
(0.999689 0.000260573 0)
(0.999522 0.000332829 0)
(1.00032 -0.000259849 0)
(1.00005 0.000139759 0)
(0.998657 0.00126836 0)
(0.998457 0.00163142 0)
(0.999926 0.00128963 0)
(1.0011 0.00129074 0)
(1.00068 0.00190713 0)
(0.999686 0.00244053 0)
(0.999681 0.00233535 0)
(1.00057 0.00197047 0)
(1.00125 0.00188434 0)
(1.00112 0.0021389 0)
(1.0005 0.00242815 0)
(1.00015 0.00244619 0)
(1.00023 0.00224639 0)
(1.00045 0.00231036 0)
(0.999858 0.000169432 0)
(1.00014 -0.000166599 0)
(0.999734 0.000206994 0)
(0.999465 0.000434568 0)
(1.00027 -0.000166598 0)
(1.00019 4.01887e-05 0)
(0.998813 0.00118872 0)
(0.998426 0.00173037 0)
(0.999822 0.00136461 0)
(1.00114 0.00117538 0)
(1.00085 0.00170457 0)
(0.999752 0.00238019 0)
(0.999568 0.00241099 0)
(1.00044 0.00201809 0)
(1.00127 0.00182426 0)
(1.00127 0.00202986 0)
(1.00063 0.00237787 0)
(1.00013 0.00252517 0)
(1.00019 0.00236884 0)
(1.00051 0.00227989 0)
(0.999863 0.000181753 0)
(1.00015 -0.000143757 0)
(0.999791 0.000146854 0)
(0.999425 0.000514001 0)
(1.0002 -5.0403e-05 0)
(1.00032 -4.1121e-05 0)
(0.999002 0.00106474 0)
(0.998422 0.00178783 0)
(0.99969 0.00146817 0)
(1.00114 0.00111119 0)
(1.00102 0.00149549 0)
(0.999875 0.00225911 0)
(0.999478 0.00246569 0)
(1.00028 0.0021035 0)
(1.00125 0.00179587 0)
(1.00142 0.00191287 0)
(1.0008 0.00227772 0)
(1.00018 0.00253016 0)
(1.00012 0.0024848 0)
(1.00048 0.00232774 0)
(0.99987 0.000186561 0)
(1.00015 -0.00010491 0)
(0.999857 8.32682e-05 0)
(0.999405 0.000567081 0)
(1.00012 8.63346e-05 0)
(1.00042 -9.28169e-05 0)
(0.999219 0.000912963 0)
(0.998457 0.00179451 0)
(0.999541 0.00158575 0)
(1.00108 0.00110419 0)
(1.00119 0.00130243 0)
(1.00005 0.00208056 0)
(0.999438 0.00247342 0)
(1.00009 0.00220823 0)
(1.00116 0.00181342 0)
(1.00154 0.00180523 0)
(1.00101 0.00214708 0)
(1.00029 0.00247383 0)
(1.00009 0.00254084 0)
(1.0004 0.00242089 0)
(0.999879 0.000184189 0)
(1.00015 -5.59461e-05 0)
(0.999927 2.82134e-05 0)
(0.999409 0.000589807 0)
(1.00003 0.000236697 0)
(1.00049 -9.82099e-05 0)
(0.999453 0.000749071 0)
(0.99854 0.0017466 0)
(0.999394 0.00170144 0)
(1.00097 0.00115455 0)
(1.00132 0.00115023 0)
(1.00028 0.00186484 0)
(0.999465 0.00241684 0)
(0.999914 0.0023016 0)
(1.00101 0.00188046 0)
(1.0016 0.00172551 0)
(1.00122 0.00200145 0)
(1.00046 0.00237265 0)
(1.00012 0.00252755 0)
(1.00031 0.00249249 0)
(0.99989 0.000174008 0)
(1.00014 2.41197e-06 0)
(0.999996 -1.8438e-05 0)
(0.999437 0.000579106 0)
(0.99994 0.000384371 0)
(1.00053 -5.54709e-05 0)
(0.99969 0.000590317 0)
(0.998674 0.00164003 0)
(0.999267 0.00178888 0)
(1.00081 0.00124182 0)
(1.0014 0.00105093 0)
(1.00052 0.00163851 0)
(0.999569 0.00229585 0)
(0.99977 0.00235545 0)
(1.00082 0.00197927 0)
(1.0016 0.00169686 0)
(1.00143 0.00185189 0)
(1.00067 0.00224013 0)
(1.0002 0.00246119 0)
(1.00026 0.00250123 0)
(0.999903 0.000159198 0)
(1.00013 6.24733e-05 0)
(1.00006 -5.12441e-05 0)
(0.99949 0.000539648 0)
(0.999856 0.000513233 0)
(1.00053 2.41148e-05 0)
(0.999913 0.000453226 0)
(0.998856 0.00148868 0)
(0.99918 0.00183257 0)
(1.00063 0.00135161 0)
(1.00142 0.0010134 0)
(1.00077 0.00142626 0)
(0.999743 0.00212003 0)
(0.999687 0.00235103 0)
(1.0006 0.00207538 0)
(1.00151 0.00172942 0)
(1.00159 0.00172621 0)
(1.00091 0.00208104 0)
(1.00034 0.0023647 0)
(1.00028 0.00244837 0)
(0.999916 0.000140804 0)
(1.00011 0.000118493 0)
(1.00011 -5.99334e-05 0)
(0.999562 0.000479436 0)
(0.999789 0.00061181 0)
(1.00049 0.00013386 0)
(1.00011 0.000350798 0)
(0.999076 0.00131253 0)
(0.999145 0.00182017 0)
(1.00043 0.00146328 0)
(1.00138 0.00103514 0)