/*--------------------------------*- C++ -*----------------------------------*\
| =========                 |                                                 |
| \\      /  F ield         | OpenFOAM: The Open Source CFD Toolbox           |
|  \\    /   O peration     | Version:  2106                                  |
|   \\  /    A nd           | Website:  www.openfoam.com                      |
|    \\/     M anipulation  |                                                 |
\*---------------------------------------------------------------------------*/
FoamFile
{
    version     2.0;
    format      ascii;
    arch        "LSB;label=32;scalar=64";
    class       volScalarField;
    location    "0.62";
    object      p;
}
// * * * * * * * * * * * * * * * * * * * * * * * * * * * * * * * * * * * * * //

dimensions      [0 2 -2 0 0 0 0];

internalField   nonuniform List<scalar> 
9600
(
6.66865e-11
0.000223086
-0.00239687
-0.000965968
0.000681577
0.000799692
-0.0004448
0.00103418
0.000235444
0.00121688
0.000811022
0.00168823
0.00232363
0.00271164
0.00264293
0.00440825
0.00471585
0.00633927
0.0087664
0.012505
4.12708e-07
0.000216971
-0.0023808
-0.000963769
0.000670847
0.000801119
-0.000441487
0.00103403
0.000237215
0.00121526
0.000814383
0.00168859
0.002323
0.0026976
0.00264555
0.00436746
0.00473398
0.00630589
0.00882947
0.0120734
-1.69391e-07
0.000209162
-0.00236087
-0.000962095
0.000659645
0.000804432
-0.00043759
0.00103419
0.000241854
0.00121034
0.000819161
0.00168849
0.00233335
0.00268885
0.00265161
0.00434273
0.00475177
0.00625736
0.00884769
0.0115347
-1.98723e-06
0.000199991
-0.00233927
-0.000955849
0.000648269
0.000807032
-0.000433311
0.00103584
0.000249273
0.00120226
0.000823462
0.00168918
0.00233063
0.00268034
0.00265896
0.00430639
0.00476757
0.00620062
0.00881824
0.0110671
-5.08309e-06
0.000189031
-0.00231349
-0.000945174
0.000633817
0.000808746
-0.000427785
0.00103794
0.000258678
0.00119119
0.000827372
0.0016892
0.00232605
0.0026695
0.00266575
0.0042657
0.00478313
0.00613296
0.00876835
0.0106512
-9.40422e-06
0.000176662
-0.00228261
-0.000932701
0.000615364
0.000810078
-0.000421051
0.00103932
0.000269244
0.00117759
0.000830912
0.00168738
0.00232074
0.00265555
0.00267293
0.00422119
0.00479713
0.00605961
0.00869642
0.010263
-1.46971e-05
0.0001634
-0.00224705
-0.000920165
0.000593123
0.000811133
-0.000413381
0.00103973
0.000280443
0.00116205
0.000834422
0.00168378
0.00231604
0.00263873
0.00268071
0.00417322
0.00480917
0.00598228
0.0085973
0.00989713
-2.06396e-05
0.000149549
-0.00220366
-0.000908315
0.000568144
0.00081197
-0.000404819
0.00103925
0.000292105
0.00114513
0.000838428
0.00167864
0.00231268
0.00261907
0.002689
0.00412238
0.00481749
0.00590157
0.00846922
0.00955121
-2.69553e-05
0.000135228
-0.00216145
-0.000897278
0.000541311
0.000812663
-0.000395334
0.00103792
0.000304319
0.00112712
0.000843223
0.00167193
0.00231091
0.00259664
0.00269759
0.00406921
0.00481974
0.00581854
0.00831204
0.00922326
-3.34534e-05
0.000120491
-0.00211728
-0.000886843
0.000513432
0.000813179
-0.000384919
0.00103571
0.000317242
0.00110803
0.000848956
0.00166351
0.00231083
0.00257161
0.00270577
0.00401452
0.00481361
0.00573413
0.00812613
0.00890475
-4.00253e-05
0.000105359
-0.00207148
-0.00087673
0.000485104
0.000813433
-0.000373576
0.00103256
0.000331018
0.00108772
0.000855741
0.0016532
0.00231245
0.00254415
0.00271246
0.00395938
0.0047971
0.00564852
0.00791391
0.00859228
-4.66158e-05
8.98272e-05
-0.00202425
-0.000866711
0.000456711
0.000813346
-0.000361289
0.00102837
0.000345778
0.00106606
0.00086367
0.00164092
0.00231545
0.00251402
0.00271649
0.0039048
0.00476862
0.00556111
0.00767946
0.00828102
-5.31932e-05
7.38919e-05
-0.00197569
-0.000856667
0.000428483
0.000812851
-0.000348045
0.00102307
0.000361632
0.00104288
0.000872785
0.0016267
0.00231934
0.00247535
0.00271654
0.00385146
0.0047272
0.00547039
0.00742726
0.00796746
-5.97323e-05
5.75435e-05
-0.00192554
-0.000846581
0.000400548
0.000811906
-0.000333853
0.00101657
0.000378669
0.00101801
0.00088306
0.00161068
0.00232366
0.00244325
0.00271119
0.00379962
0.00467267
0.00537395
0.00716207
0.00764957
-6.62107e-05
4.07605e-05
-0.00187448
-0.000836508
0.000372968
0.000810504
-0.000318746
0.00100877
0.000396935
0.000991326
0.000894401
0.00159311
0.00232768
0.00241199
0.00269935
0.0037491
0.00460561
0.005269
0.00688828
0.0073266
-7.26077e-05
2.35184e-05
-0.00182225
-0.00082654
0.000345773
0.000808666
-0.000302774
0.000999584
0.00041642
0.000962784
0.000906626
0.00157436
0.00233049
0.0023816
0.00268036
0.00369903
0.00452716
0.00515309
0.00660936
0.00699888
-7.89033e-05
5.79601e-06
-0.0017689
-0.000816773
0.000318973
0.000806443
-0.000286014
0.000988959
0.000437075
0.000932414
0.000919435
0.0015549
0.00233128
0.00235253
0.00265389
0.00364787
0.00443878
0.00502462
0.00632746
0.00666748
-8.50768e-05
-1.24231e-05
-0.00171451
-0.000807274
0.000292567
0.000803909
-0.000268576
0.000976852
0.000458822
0.000900325
0.000932443
0.00153521
0.00232936
0.00232596
0.00261993
0.00359385
0.00434168
0.00488268
0.00604393
0.00633422
-9.11068e-05
-3.11437e-05
-0.00165916
-0.000798076
0.000266531
0.000801166
-0.000250571
0.000963226
0.000481547
0.00086671
0.00094522
0.0015157
0.00232419
0.00230461
0.00257873
0.00353535
0.00423686
0.00472684
0.00575934
0.00600141
-9.69736e-05
-5.03542e-05
-0.00160297
-0.000789164
0.000240815
0.000798354
-0.000232121
0.000948068
0.000505112
0.000831781
0.000957369
0.00149674
0.00231519
0.00227872
0.00253051
0.00347095
0.00412523
0.00455792
0.00547356
0.00567147
-0.000102659
-7.00296e-05
-0.00154606
-0.000780487
0.000215338
0.000795641
-0.000213373
0.00093138
0.00052939
0.000795699
0.000968555
0.00147863
0.002302
0.00225279
0.00247523
0.00339924
0.00400713
0.0043771
0.00518638
0.00534677
-0.000108146
-9.01266e-05
-0.00148861
-0.000771958
0.00018999
0.000793226
-0.000194443
0.000913097
0.000554306
0.000758615
0.000978445
0.0014616
0.00228431
0.00222693
0.00241278
0.00331897
0.0038832
0.00418528
0.00489713
0.00502928
-0.000113424
-0.000110578
-0.00143082
-0.000763451
0.000164637
0.000791323
-0.000175386
0.000893103
0.000579825
0.000720679
0.000986765
0.00144573
0.00226169
0.00220084
0.00234312
0.00322895
0.00375495
0.00398385
0.00460421
0.00472
-0.000118489
-0.000131295
-0.0013729
-0.000754817
0.000139124
0.000790097
-0.000156192
0.000871298
0.000605952
0.000681966
0.000993308
0.00143128
0.00223351
0.00217414
0.00226617
0.0031281
0.00362347
0.0037747
0.00430566
0.00441834
-0.000123344
-0.000152155
-0.00131513
-0.000745882
0.000113288
0.000789673
-0.000136774
0.000847459
0.000632853
0.00064246
0.000997648
0.00141875
0.00219881
0.00214636
0.00218226
0.00301449
0.00348916
0.00356147
0.00400057
0.00412163
-0.000128007
-0.000173002
-0.0012578
-0.000736461
8.70078e-05
0.000790121
-0.000116976
0.000821273
0.000660811
0.000602046
0.000999086
0.00140896
0.00215668
0.00211641
0.00209243
0.00288639
0.00335087
0.00334919
0.00369009
0.00382475
-0.000132515
-0.000193635
-0.00120127
-0.00072636
6.02062e-05
0.000791415
-9.64913e-05
0.000792389
0.000690026
0.000560804
0.0009967
0.0014027
0.00210647
0.00208249
0.00199756
0.00274344
0.00320639
0.00314202
0.00337793
0.00352171
-0.000136922
-0.000213827
-0.00114591
-0.000715393
3.28471e-05
0.000793472
-7.48388e-05
0.000760258
0.000720535
0.000519334
0.000989222
0.00140065
0.00204794
0.00204201
0.00190547
0.00258655
0.00305258
0.00294181
0.00306981
0.0032092
-0.000141297
-0.000233302
-0.00109212
-0.00070344
5.01076e-06
0.000796031
-5.13889e-05
0.0007243
0.000752261
0.000478665
0.000974917
0.00140321
0.00198178
0.00199173
0.00181487
0.00241832
0.00288646
0.00274765
0.00277142
0.00288915
-0.000145742
-0.000251713
-0.00104033
-0.000690491
-2.31152e-05
0.000798653
-2.5226e-05
0.000683995
0.000784394
0.000440343
0.000951681
0.00140982
0.00191014
0.00192842
0.0017256
0.00224317
0.00270634
0.00255648
0.00248667
0.00256779
-0.000150386
-0.000268708
-0.000990903
-0.000676577
-5.12404e-05
0.000800711
4.65483e-06
0.000639243
0.000815483
0.000406397
0.000917772
0.00141888
0.00183609
0.00184953
0.00163656
0.00206591
0.00251247
0.00236497
0.00221633
0.00225182
-0.000155369
-0.000283895
-0.000944147
-0.000661814
-7.89217e-05
0.000801268
3.90238e-05
0.000590282
0.000843602
0.000378876
0.000872372
0.00142741
0.00176291
0.00175404
0.00154507
0.00189044
0.00230656
0.0021701
0.00195919
0.0019456
-0.000160855
-0.000296859
-0.000900387
-0.000646543
-0.000105611
0.0007994
7.83629e-05
0.000537699
0.000866455
0.000359532
0.000815679
0.00143146
0.00169354
0.00164274
0.00144768
0.00171994
0.00209119
0.001969
0.00171396
0.00165135
-0.000167024
-0.000307284
-0.000859845
-0.000631266
-0.000130533
0.000794233
0.000122784
0.000482762
0.000881448
0.000348932
0.000749005
0.00142673
0.00162981
0.00151832
0.00134101
0.00155685
0.00187029
0.00175811
0.00147865
0.0013709
-0.00017405
-0.000314912
-0.000822517
-0.000616661
-0.000152798
0.000785022
0.000171717
0.000427127
0.000886442
0.000346675
0.000674544
0.00140923
0.00157218
0.00138496
0.00122187
0.00140173
0.00164967
0.00153457
0.001249
0.00110612
-0.000182086
-0.000319539
-0.000788315
-0.00060367
-0.000171768
0.000771506
0.000224012
0.000377573
0.000880129
0.000350793
0.000595002
0.00137621
0.0015198
0.00124735
0.0010879
0.00125221
0.00143569
0.00129939
0.00101826
0.000856851
-0.000191282
-0.000321132
-0.000757476
-0.000593478
-0.000187237
0.000753899
0.000278125
0.00033416
0.000861557
0.000358036
0.000512944
0.00132663
0.00147086
0.00110976
0.000938197
0.00110399
0.00123379
0.00105834
0.000779437
0.000618817
-0.000201725
-0.000319868
-0.000734158
-0.00058726
-0.000199445
0.000733293
0.000331811
0.000298324
0.000831526
0.000364811
0.000429797
0.00126088
0.00142376
0.000975863
0.000772817
0.000952032
0.00104702
0.000819857
0.000529271
0.000384227
-0.000213397
-0.00031605
-0.000713697
-0.000585931
-0.000209251
0.000711416
0.000382891
0.000270489
0.000792928
0.000368506
0.000345945
0.00117959
0.00137713
0.000849288
0.000592896
0.000790609
0.000875069
0.000592235
0.000270095
0.000144634
-0.000226258
-0.000310099
-0.000682605
-0.000589956
-0.00021846
0.000690217
0.000428298
0.00024969
0.000748898
0.000367963
0.000261095
0.00108273
0.00132918
0.00073398
0.000401776
0.000613561
0.000714031
0.000383258
8.34086e-06
-0.000105711
-0.000240233
-0.000302735
-0.000646739
-0.000599111
-0.000229677
0.00067157
0.000468094
0.000233535
0.00070183
0.00036367
0.000175149
0.000969529
0.00127728
0.000633836
0.000205264
0.000415493
0.000556727
0.000199128
-0.000246339
-0.000368255
-0.000255132
-0.000294821
-0.000606035
-0.00061235
-0.000245952
0.00065641
0.000503106
0.000218853
0.000652454
0.000358013
8.93779e-05
0.000838811
0.00121714
0.000551219
1.07699e-05
0.000194664
0.000393472
4.10841e-05
-0.000482492
-0.000640459
-0.000270685
-0.000287261
-0.000560042
-0.000627802
-0.000270504
0.000644425
0.000535955
0.00020322
0.000600644
0.000353088
6.30048e-06
0.0006902
0.00114301
0.000485913
-0.000172433
-4.53603e-05
0.000213462
-9.72202e-05
-0.000688805
-0.000915314
-0.000286557
-0.000280981
-0.000509298
-0.000642851
-0.000305769
0.000633925
0.000570265
0.000184329
0.000543161
0.000349169
-6.88872e-05
0.000525935
0.00104753
0.000433974
-0.000334773
-0.000296434
8.85266e-06
-0.000226951
-0.000857193
-0.00117949
-0.000302271
-0.000276878
-0.000454799
-0.000654234
-0.000352924
0.000620706
0.000609143
0.000162655
0.000475395
0.000344898
-0.000129621
0.000350629
0.000923981
0.000387941
-0.000470013
-0.00054827
-0.000221957
-0.000361984
-0.000988072
-0.00141467
-0.000317201
-0.000275787
-0.000398409
-0.000658489
-0.000411876
0.000598638
0.000653841
0.000143147
0.000394149
0.000336108
-0.000171577
0.000172274
0.00077013
0.000337164
-0.000577481
-0.000789403
-0.000474257
-0.000515499
-0.00109343
-0.00160416
-0.000330749
-0.000278347
-0.000342601
-0.000652877
-0.00048061
0.000561407
0.000703712
0.000132895
0.000299367
0.000315165
-0.000194754
2.88186e-06
0.000589202
0.000269811
-0.000661312
-0.00100956
-0.000738769
-0.000693913
-0.00119155
-0.00174395
-0.000342284
-0.000284992
-0.000289708
-0.000635411
-0.000555058
0.000503687
0.000755232
0.000138519
0.000193462
0.00027371
-0.000202632
-0.000146196
0.000387934
0.000176552
-0.000729337
-0.00120229
-0.00100526
-0.000894873
-0.00129856
-0.00184738
-0.000351221
-0.000295782
-0.000242705
-0.000604985
-0.000629813
0.000421591
0.000801171
0.000163966
8.19157e-05
0.000206326
-0.000202853
-0.000268361
0.000177946
5.46457e-05
-0.000791921
-0.00136534
-0.0012649
-0.00111285
-0.00142117
-0.00193386
-0.000357232
-0.000310323
-0.000204435
-0.0005615
-0.000699757
0.000314435
0.000831753
0.000209105
-2.42267e-05
0.000112383
-0.000207184
-0.000363409
-2.76339e-05
-9.27516e-05
-0.000859052
-0.00149942
-0.00150877
-0.00134312
-0.0015593
-0.00201914
-0.000360204
-0.000327775
-0.000176823
-0.000506883
-0.000758712
0.000183466
0.0008372
0.000270907
-0.000113221
-4.62876e-06
-0.00022706
-0.000434213
-0.000218424
-0.000259791
-0.000938571
-0.00160916
-0.00172711
-0.00157919
-0.00171227
-0.00211029
-0.000360285
-0.000346924
-0.000161394
-0.000445137
-0.000801124
3.34433e-05
0.00080975
0.000342122
-0.000177384
-0.000138698
-0.000271071
-0.000487387
-0.000386828
-0.000437521
-0.00103492
-0.00170362
-0.00191332
-0.00180989
-0.00187963
-0.00220914
-0.000357868
-0.00036634
-0.000158992
-0.000381531
-0.000823019
-0.000125534
0.000743825
0.00041056
-0.000211556
-0.000278529
-0.000342424
-0.000534052
-0.000530309
-0.000615664
-0.00114798
-0.0017925
-0.00206764
-0.002022
-0.00205573
-0.00231676
-0.000353606
-0.000384446
-0.000169364
-0.000322107
-0.000822651
-0.000282725
0.000638302
0.000461528
-0.000217282
-0.000410628
-0.000438721
-0.00058438
-0.00065076
-0.00078605
-0.00127364
-0.0018825
-0.00219664
-0.00220542
-0.00222796
-0.00243246
-0.000348416
-0.000400056
-0.000191766
-0.000271993
-0.000800379
-0.000429411
0.000495181
0.000483634
-0.000199698
-0.000523874
-0.000555165
-0.000646141
-0.000751355
-0.00094275
-0.00140693
-0.00197692
-0.00230888
-0.00235798
-0.00238247
-0.00254818
-0.000343229
-0.000412589
-0.000224022
-0.00023532
-0.000761321
-0.000557848
0.000321663
0.000468681
-0.000170353
-0.00061245
-0.000681681
-0.000725188
-0.000838863
-0.00108002
-0.00154231
-0.00207734
-0.00241031
-0.00248511
-0.00251046
-0.00265133
-0.000339024
-0.000421802
-0.000263043
-0.000215336
-0.000710853
-0.000662253
0.000130955
0.000412762
-0.000143538
-0.000677149
-0.000806798
-0.000819238
-0.000922806
-0.0011971
-0.00167129
-0.00218386
-0.00250601
-0.00259343
-0.00261296
-0.00273146
-0.000336677
-0.000427942
-0.000304959
-0.000213129
-0.000657083
-0.000740128
-6.3177e-05
0.000315989
-0.000131444
-0.000720924
-0.000926252
-0.000923753
-0.0010058
-0.00129823
-0.00178773
-0.0022931
-0.00260143
-0.002688
-0.00269689
-0.00278562
-0.000336805
-0.000431649
-0.000346333
-0.000227813
-0.000608704
-0.000791635
-0.000249678
0.000183409
-0.000143381
-0.000748761
-0.0010351
-0.00103886
-0.00108809
-0.00138329
-0.00189013
-0.00240009
-0.00270028
-0.0027755
-0.00276763
-0.00282062
-0.000339851
-0.000433808
-0.000385941
-0.000257358
-0.000571439
-0.000821475
-0.000420757
2.58498e-05
-0.000183436
-0.000770869
-0.00112829
-0.00116139
-0.00117685
-0.00145031
-0.00197273
-0.00250008
-0.00280353
-0.00286422
-0.00283213
-0.00284566
-0.00034597
-0.000435914
-0.000422783
-0.000298391
-0.000548431
-0.000837912
-0.000572208
-0.000145546
-0.000251052
-0.000795798
-0.00120818
-0.00128345
-0.00127653
-0.00150799
-0.00202714
-0.00258534
-0.00290934
-0.00296102
-0.00289768
-0.00286651
-0.000355319
-0.000439289
-0.000456788
-0.000347616
-0.000541155
-0.00084728
-0.000703278
-0.000321653
-0.000343278
-0.000826177
-0.00127843
-0.00140294
-0.00138431
-0.00156645
-0.00205651
-0.00264203
-0.00301034
-0.00306818
-0.00297056
-0.00288727
-0.000368158
-0.000444964
-0.000488467
-0.000401996
-0.000549014
-0.000854731
-0.000815075
-0.000495252
-0.000456992
-0.000865979
-0.00133754
-0.0015206
-0.00150048
-0.00162936
-0.00207236
-0.00266266
-0.0030893
-0.0031811
-0.00305647
-0.00291336
-0.000384488
-0.000453858
-0.000518533
-0.000459424
-0.000570711
-0.000863909
-0.000910899
-0.000662513
-0.000586185
-0.000920025
-0.00138647
-0.00162903
-0.00162896
-0.00170133
-0.00208105
-0.00265306
-0.00312757
-0.00328366
-0.00315565
-0.00295222
-0.00040425
-0.000466603
-0.000547857
-0.000518466
-0.00060465
-0.000877187
-0.00099307
-0.000821452
-0.000725597
-0.000988882
-0.00143235
-0.00172182
-0.00176237
-0.00179138
-0.00208864
-0.0026212
-0.00311977
-0.00334961
-0.00325634
-0.00300984
-0.000427552
-0.000483581
-0.000577231
-0.000578105
-0.000649066
-0.00089653
-0.00106335
-0.000970002
-0.00087242
-0.00107067
-0.0014801
-0.00179989
-0.00188865
-0.00189999
-0.00210696
-0.00257276
-0.00307181
-0.00336186
-0.00333508
-0.00308039
-0.000454437
-0.000504981
-0.000607321
-0.000637712
-0.000702158
-0.000923357
-0.00112424
-0.00110589
-0.00102413
-0.00116534
-0.0015308
-0.00186725
-0.00200098
-0.00201575
-0.00214488
-0.00251805
-0.00299111
-0.00331837
-0.00336557
-0.00314536
-0.000484832
-0.000530934
-0.000638574
-0.000696753
-0.000762213
-0.000958504
-0.00117874
-0.00122778
-0.0011765
-0.00127396
-0.00158694
-0.00192541
-0.00209799
-0.00212855
-0.00220134
-0.00246985
-0.00288502
-0.00322568
-0.00333361
-0.00317617
-0.000518517
-0.000561479
-0.000671357
-0.000754659
-0.000827649
-0.00100221
-0.00122969
-0.00133558
-0.00132484
-0.00139528
-0.00165281
-0.00197705
-0.00217964
-0.00223191
-0.0022695
-0.0024374
-0.00276409
-0.00308971
-0.00323693
-0.00314587
-0.000555087
-0.000596503
-0.000706197
-0.000810679
-0.000896632
-0.00105446
-0.00127965
-0.00143004
-0.00146522
-0.00152534
-0.00173177
-0.00202759
-0.00224719
-0.00232144
-0.00234064
-0.00242455
-0.00264136
-0.00291627
-0.00307889
-0.00304232
-0.000593996
-0.000635614
-0.000743628
-0.000864378
-0.000966989
-0.00111458
-0.00133127
-0.00151265
-0.00159407
-0.00165897
-0.00182368
-0.00208188
-0.00230416
-0.00239507
-0.00240606
-0.00242733
-0.00252937
-0.00271591
-0.00286262
-0.00286702
-0.00063462
-0.000678158
-0.000783998
-0.000915709
-0.0010365
-0.00118066
-0.00138664
-0.00158615
-0.00170845
-0.00179041
-0.00192552
-0.00214166
-0.00235393
-0.00245302
-0.00245596
-0.00243385
-0.00243599
-0.00250863
-0.00260178
-0.00262556
-0.000676277
-0.000723048
-0.000827334
-0.000965088
-0.00110299
-0.00124996
-0.00144643
-0.00165373
-0.00180756
-0.00191296
-0.00203221
-0.00220568
-0.00239558
-0.00249515
-0.00248413
-0.00242801
-0.00235621
-0.00231873
-0.0023342
-0.00235673
-0.000718361
-0.000768825
-0.000872925
-0.00101322
-0.00116502
-0.00131943
-0.00150936
-0.00171781
-0.00189284
-0.00202127
-0.00213672
-0.00227181
-0.00242554
-0.00251679
-0.00248869
-0.00239726
-0.00227792
-0.00216729
-0.00211663
-0.0021272
-0.000760088
-0.000814182
-0.00091946
-0.0010604
-0.00122216
-0.00138591
-0.00157307
-0.0017789
-0.00196605
-0.0021123
-0.00223224
-0.00233907
-0.00244538
-0.00251212
-0.00246851
-0.00234694
-0.00220019
-0.00205615
-0.00196472
-0.00195857
-0.000800421
-0.000857777
-0.000965181
-0.00110624
-0.00127431
-0.00144713
-0.00163468
-0.00183627
-0.00202782
-0.00218421
-0.00231011
-0.00240546
-0.00246995
-0.00250055
-0.00243668
-0.00228598
-0.00211697
-0.00196119
-0.00185471
-0.00183946
-0.000838259
-0.000898186
-0.0010081
-0.00114959
-0.00132124
-0.0015014
-0.0016914
-0.00188957
-0.00207986
-0.0022369
-0.00236069
-0.00245165
-0.00249855
-0.00250726
-0.00244055
-0.00227714
-0.00207752
-0.00188986
-0.00175181
-0.00170957
-0.000872121
-0.000933889
-0.00104616
-0.00118856
-0.00136208
-0.00154731
-0.00174036
-0.00193633
-0.00212499
-0.00228251
-0.00239598
-0.00246295
-0.00247365
-0.0024437
-0.0023778
-0.00225249
-0.00209645
-0.00195378
-0.00185365
-0.00182981
-0.000900644
-0.000963732
-0.00107751
-0.00122078
-0.00139466
-0.00158219
-0.00177743
-0.00197093
-0.00215566
-0.00231394
-0.00243061
-0.00250489
-0.00252218
-0.00247427
-0.00237509
-0.0022212
-0.00202598
-0.00184211
-0.00171563
-0.00168802
-0.000923497
-0.000989542
-0.00110626
-0.00125227
-0.00142805
-0.00161756
-0.00181511
-0.00200942
-0.00219201
-0.00234851
-0.00246247
-0.0025272
-0.00253405
-0.00247483
-0.00236269
-0.00220993
-0.00202861
-0.00185888
-0.00174476
-0.00172797
0.0182911
0.0116428
0.00236691
-0.0044887
-0.00663571
-0.00601708
-0.00517719
-0.00480414
-0.00466301
-0.00459367
-0.00463351
-0.0047589
-0.00485102
-0.00490058
-0.00502299
-0.00519691
-0.00528291
-0.00530097
-0.0053619
-0.00547178
-0.00559499
-0.00570674
-0.00578459
-0.00585428
-0.00595469
-0.00606285
-0.00615401
-0.00624786
-0.00635664
-0.00647526
-0.00659401
-0.00670901
-0.00682861
-0.0069491
-0.00706852
-0.00719032
-0.00731256
-0.00744172
-0.00757743
-0.00772145
-0.0078826
-0.00805417
-0.00823
-0.00841631
-0.00859494
-0.00875194
-0.00891004
-0.00907549
-0.00922896
-0.00937498
-0.00951458
-0.00964989
-0.00982613
-0.0100451
-0.0102566
-0.010436
-0.0106008
-0.0107777
-0.0109746
-0.0111501
-0.011298
-0.0114645
-0.0116433
-0.0117999
-0.0119459
-0.0121098
-0.0122739
-0.0124294
-0.0125857
-0.0127472
-0.0129092
-0.0130697
-0.0132352
-0.0133996
-0.0135684
-0.0137388
-0.0139102
-0.0140836
-0.0142576
-0.0144403
-0.0146224
-0.0148126
-0.0150013
-0.0151941
-0.0153867
-0.0155832
-0.015785
-0.0159903
-0.0162024
-0.0164152
-0.0166354
-0.0168535
-0.0170796
-0.0173032
-0.0175339
-0.0177648
-0.0179927
-0.0182322
-0.0184413
-0.0186494
0.0172101
0.0114676
0.00245142
-0.0043474
-0.0065479
-0.00597453
-0.00515143
-0.00478693
-0.00465063
-0.00458371
-0.00462508
-0.00475179
-0.00484487
-0.00489499
-0.00501804
-0.00519281
-0.00527939
-0.00529766
-0.00535883
-0.00546901
-0.0055925
-0.00570454
-0.0057826
-0.00585238
-0.00595293
-0.00606124
-0.0061525
-0.0062464
-0.00635524
-0.00647392
-0.00659274
-0.00670779
-0.00682744
-0.00694799
-0.00706745
-0.0071893
-0.00731157
-0.00744078
-0.00757653
-0.00772059
-0.00788178
-0.00805339
-0.00822925
-0.0084156
-0.00859429
-0.00875133
-0.00890945
-0.00907494
-0.00922846
-0.00937451
-0.00951416
-0.00964947
-0.00982573
-0.0100447
-0.0102563
-0.0104357
-0.0106005
-0.0107775
-0.0109744
-0.0111499
-0.0112978
-0.0114643
-0.0116432
-0.0117998
-0.0119458
-0.0121097
-0.0122738
-0.0124294
-0.0125856
-0.0127472
-0.0129092
-0.0130696
-0.0132351
-0.0133996
-0.0135684
-0.0137388
-0.0139102
-0.0140836
-0.0142575
-0.0144403
-0.0146224
-0.0148125
-0.0150013
-0.015194
-0.0153867
-0.0155832
-0.015785
-0.0159903
-0.0162024
-0.0164152
-0.0166354
-0.0168535
-0.0170796
-0.0173032
-0.0175339
-0.0177648
-0.0179927
-0.0182322
-0.0184413
-0.0186494
0.0162823
0.0113263
0.0026419
-0.00407697
-0.00639444
-0.0059169
-0.00512352
-0.00476616
-0.00463428
-0.00457115
-0.00461524
-0.00474382
-0.00483818
-0.00488908
-0.00501281
-0.00518838
-0.0052756
-0.00529431
-0.00535588
-0.00546636
-0.00559008
-0.0057024
-0.00578068
-0.00585061
-0.00595133
-0.00605979
-0.00615113
-0.00624511
-0.00635402
-0.00647277
-0.00659164
-0.00670673
-0.00682643
-0.00694702
-0.00706652
-0.00718841
-0.00731072
-0.00743996
-0.00757574
-0.00771983
-0.00788106
-0.0080527
-0.00822859
-0.00841498
-0.00859372
-0.00875079
-0.00890893
-0.00907447
-0.00922802
-0.0093741
-0.00951377
-0.00964909
-0.00982535
-0.0100444
-0.010256
-0.0104354
-0.0106003
-0.0107772
-0.0109742
-0.0111497
-0.0112976
-0.0114642
-0.0116431
-0.0117997
-0.0119457
-0.0121096
-0.0122737
-0.0124293
-0.0125856
-0.0127471
-0.0129091
-0.0130696
-0.0132351
-0.0133996
-0.0135683
-0.0137387
-0.0139102
-0.0140835
-0.0142575
-0.0144403
-0.0146224
-0.0148125
-0.0150013
-0.015194
-0.0153867
-0.0155832
-0.0157849
-0.0159903
-0.0162024
-0.0164152
-0.0166354
-0.0168535
-0.0170796
-0.0173032
-0.0175339
-0.0177648
-0.0179927
-0.0182322
-0.0184413
-0.0186495
0.0154403
0.0111769
0.00287457
-0.00374044
-0.00618589
-0.0058357
-0.00508302
-0.00473419
-0.00460856
-0.00455233
-0.00460137
-0.00473278
-0.00482919
-0.00488159
-0.005006
-0.00518198
-0.00527001
-0.00528984
-0.00535227
-0.00546303
-0.00558685
-0.00569948
-0.00577819
-0.00584846
-0.00594942
-0.00605807
-0.00614956
-0.00624371
-0.00635275
-0.00647157
-0.00659051
-0.00670565
-0.00682541
-0.00694605
-0.00706557
-0.00718749
-0.00730982
-0.00743908
-0.00757491
-0.00771902
-0.00788031
-0.008052
-0.00822791
-0.00841433
-0.00859312
-0.00875021
-0.00890838
-0.00907396
-0.00922754
-0.00937363
-0.00951333
-0.00964865
-0.00982493
-0.0100441
-0.0102557
-0.0104351
-0.0106
-0.010777
-0.0109739
-0.0111495
-0.0112974
-0.011464
-0.0116429
-0.0117996
-0.0119455
-0.0121095
-0.0122736
-0.0124292
-0.0125855
-0.012747
-0.0129091
-0.0130695
-0.013235
-0.0133995
-0.0135683
-0.0137387
-0.0139101
-0.0140835
-0.0142575
-0.0144402
-0.0146224
-0.0148125
-0.0150013
-0.015194
-0.0153867
-0.0155832
-0.0157849
-0.0159903
-0.0162024
-0.0164152
-0.0166354
-0.0168535
-0.0170796
-0.0173032
-0.0175339
-0.0177648
-0.0179927
-0.0182322
-0.0184413
-0.0186495
0.0146074
0.0109827
0.00310576
-0.00338824
-0.00595751
-0.005744
-0.00503639
-0.00469421
-0.00457419
-0.00452666
-0.00458237
-0.00471736
-0.00481671
-0.00487175
-0.00499696
-0.00517272
-0.0052617
-0.0052836
-0.00534757
-0.00545863
-0.00558227
-0.00569517
-0.00577463
-0.00584558
-0.0059469
-0.00605575
-0.00614751
-0.00624197
-0.00635124
-0.00647018
-0.00658922
-0.00670446
-0.00682432
-0.006945
-0.00706454
-0.0071865
-0.00730884
-0.0074381
-0.00757394
-0.0077181
-0.00787946
-0.00805122
-0.00822714
-0.00841356
-0.00859239
-0.00874954
-0.00890776
-0.00907338
-0.00922694
-0.00937303
-0.00951277
-0.0096481
-0.00982442
-0.0100436
-0.0102553
-0.0104348
-0.0105996
-0.0107766
-0.0109736
-0.0111492
-0.0112972
-0.0114638
-0.0116427
-0.0117994
-0.0119454
-0.0121094
-0.0122735
-0.0124291
-0.0125854
-0.0127469
-0.012909
-0.0130694
-0.0132349
-0.0133995
-0.0135682
-0.0137387
-0.0139101
-0.0140835
-0.0142575
-0.0144402
-0.0146223
-0.0148125
-0.0150012
-0.015194
-0.0153867
-0.0155832
-0.0157849
-0.0159903
-0.0162024
-0.0164152
-0.0166354
-0.0168535
-0.0170796
-0.0173032
-0.0175339
-0.0177648
-0.0179927
-0.0182323
-0.0184414
-0.0186495
0.013781
0.0107438
0.00332739
-0.00303216
-0.00571954
-0.0056481
-0.00498937
-0.0046518
-0.00453535
-0.00449658
-0.00455955
-0.00469832
-0.00480116
-0.00485973
-0.00498582
-0.00516076
-0.00525071
-0.00527554
-0.00534171
-0.00545306
-0.00557618
-0.00568922
-0.00576976
-0.00584181
-0.00594361
-0.00605267
-0.00614482
-0.00623978
-0.00634934
-0.00646842
-0.00658762
-0.00670307
-0.00682311
-0.00694388
-0.00706345
-0.00718544
-0.00730778
-0.007437
-0.00757281
-0.00771701
-0.00787847
-0.00805032
-0.00822623
-0.00841261
-0.00859147
-0.00874872
-0.00890706
-0.0090727
-0.00922619
-0.00937223
-0.00951201
-0.00964741
-0.00982378
-0.010043
-0.0102547
-0.0104342
-0.0105992
-0.0107762
-0.0109732
-0.0111489
-0.0112968
-0.0114634
-0.0116424
-0.0117991
-0.0119451
-0.0121092
-0.0122733
-0.0124289
-0.0125852
-0.0127468
-0.0129089
-0.0130693
-0.0132349
-0.0133994
-0.0135682
-0.0137386
-0.01391
-0.0140834
-0.0142574
-0.0144402
-0.0146223
-0.0148125
-0.0150012
-0.015194
-0.0153867
-0.0155831
-0.0157849
-0.0159903
-0.0162024
-0.0164152
-0.0166354
-0.0168535
-0.0170796
-0.0173032
-0.0175339
-0.0177648
-0.0179927
-0.0182323
-0.0184414
-0.0186496
0.0129699
0.0104656
0.00353669
-0.0026743
-0.00547244
-0.0055478
-0.00494283
-0.00460889
-0.00449399
-0.00446355
-0.00453411
-0.00467694
-0.00478358
-0.00484615
-0.0049732
-0.00514695
-0.00523788
-0.00526612
-0.00533488
-0.0054465
-0.00556878
-0.00568181
-0.00576367
-0.00583715
-0.00593953
-0.00604882
-0.00614152
-0.00623712
-0.00634701
-0.00646617
-0.00658554
-0.00670132
-0.00682167
-0.0069426
-0.00706227
-0.00718434
-0.00730667
-0.00743582
-0.00757155
-0.00771575
-0.00787731
-0.00804925
-0.00822511
-0.00841138
-0.00859025
-0.00874772
-0.00890627
-0.00907195
-0.00922528
-0.00937119
-0.00951101
-0.00964653
-0.00982296
-0.0100422
-0.0102539
-0.0104335
-0.0105985
-0.0107756
-0.0109726
-0.0111483
-0.0112963
-0.011463
-0.011642
-0.0117987
-0.0119448
-0.0121089
-0.012273
-0.0124287
-0.012585
-0.0127466
-0.0129087
-0.0130692
-0.0132347
-0.0133992
-0.013568
-0.0137385
-0.01391
-0.0140834
-0.0142574
-0.0144401
-0.0146222
-0.0148124
-0.0150012
-0.015194
-0.0153867
-0.0155831
-0.0157849
-0.0159902
-0.0162024
-0.0164152
-0.0166354
-0.0168535
-0.0170796
-0.0173032
-0.0175339
-0.0177649
-0.0179927
-0.0182323
-0.0184415
-0.0186497
0.0121815
0.0101498
0.00372841
-0.00231576
-0.00521418
-0.00544068
-0.00489607
-0.00456598
-0.00445066
-0.00442797
-0.00450659
-0.00465388
-0.00476458
-0.00483141
-0.00495957
-0.00513206
-0.00522398
-0.00525586
-0.00532738
-0.00543921
-0.00556046
-0.00567336
-0.00575668
-0.0058318
-0.0059348
-0.00604435
-0.00613775
-0.00623413
-0.00634435
-0.00646346
-0.00658291
-0.00669907
-0.00681983
-0.00694105
-0.00706092
-0.00718315
-0.00730554
-0.0074346
-0.00757023
-0.0077144
-0.00787603
-0.00804802
-0.00822375
-0.00840976
-0.00858861
-0.00874639
-0.00890532
-0.0090711
-0.00922425
-0.00936994
-0.00950976
-0.00964545
-0.00982195
-0.010041
-0.0102527
-0.0104324
-0.0105977
-0.0107747
-0.0109717
-0.0111474
-0.0112956
-0.0114624
-0.0116414
-0.0117982
-0.0119443
-0.0121084
-0.0122726
-0.0124283
-0.0125847
-0.0127463
-0.0129084
-0.0130689
-0.0132345
-0.0133991
-0.0135679
-0.0137383
-0.0139098
-0.0140832
-0.0142572
-0.01444
-0.0146222
-0.0148123
-0.0150011
-0.0151939
-0.0153866
-0.0155831
-0.0157849
-0.0159902
-0.0162024
-0.0164152
-0.0166354
-0.0168535
-0.0170796
-0.0173032
-0.0175339
-0.0177649
-0.0179927
-0.0182324
-0.0184417
-0.0186499
0.0114218
0.0097979
0.0038976
-0.00195715
-0.00494269
-0.00532462
-0.00484862
-0.0045237
-0.00440588
-0.00439003
-0.00447712
-0.00462938
-0.00474436
-0.00481571
-0.0049452
-0.00511647
-0.00520936
-0.00524496
-0.00531935
-0.00543139
-0.00555153
-0.00566425
-0.00574911
-0.00582597
-0.00592961
-0.00603943
-0.00613365
-0.00623098
-0.00634153
-0.00646045
-0.00657982
-0.0066963
-0.00681751
-0.00693909
-0.00705928
-0.00718179
-0.00730434
-0.00743336
-0.00756889
-0.00771305
-0.00787473
-0.00804674
-0.00822221
-0.00840776
-0.00858646
-0.00874463
-0.00890407
-0.00907007
-0.00922308
-0.00936853
-0.00950836
-0.00964427
-0.00982078
-0.0100396
-0.010251
-0.010431
-0.0105965
-0.0107735
-0.0109704
-0.0111462
-0.0112946
-0.0114615
-0.0116405
-0.0117973
-0.0119435
-0.0121078
-0.012272
-0.0124277
-0.0125842
-0.0127459
-0.012908
-0.0130686
-0.0132342
-0.0133988
-0.0135676