/*--------------------------------*- C++ -*----------------------------------*\
| =========                 |                                                 |
| \\      /  F ield         | OpenFOAM: The Open Source CFD Toolbox           |
|  \\    /   O peration     | Version:  2106                                  |
|   \\  /    A nd           | Website:  www.openfoam.com                      |
|    \\/     M anipulation  |                                                 |
\*---------------------------------------------------------------------------*/
FoamFile
{
    version     2.0;
    format      ascii;
    arch        "LSB;label=32;scalar=64";
    class       surfaceScalarField;
    location    "0.62";
    object      phi;
}
// * * * * * * * * * * * * * * * * * * * * * * * * * * * * * * * * * * * * * //

dimensions      [0 3 -1 0 0 0 0];

oriented        oriented;

internalField   nonuniform List<scalar> 
19000
(
1.17007e-06
1.03251e-07
1.14548e-06
-5.98407e-07
1.20973e-06
2.34865e-07
1.18036e-06
6.95774e-07
1.14041e-06
-2.0282e-07
1.16071e-06
2.2024e-07
1.17092e-06
-3.24446e-07
1.16729e-06
2.67273e-07
1.17336e-06
-3.1118e-07
1.17145e-06
3.1368e-07
1.17791e-06
7.35458e-08
1.17054e-06
2.18802e-07
1.16807e-06
-5.03175e-09
1.1595e-06
2.26658e-08
1.16162e-06
-1.55774e-07
1.15582e-06
4.69255e-09
1.16624e-06
-9.20804e-08
1.16e-06
-7.65468e-08
1.1652e-06
4.08654e-08
-9.61172e-08
1.12443e-06
1.22465e-06
1.02863e-07
1.199e-06
-5.72758e-07
1.26467e-06
1.69198e-07
1.2431e-06
7.17341e-07
1.20083e-06
-1.60552e-07
1.22123e-06
1.99839e-07
1.23135e-06
-3.34559e-07
1.23081e-06
2.67806e-07
1.23521e-06
-3.15575e-07
1.23688e-06
3.12011e-07
1.23718e-06
7.32436e-08
1.23703e-06
2.18954e-07
1.22593e-06
6.063e-09
1.22647e-06
2.21306e-08
1.21647e-06
-1.45772e-07
1.22464e-06
-3.47938e-09
1.21626e-06
-8.37055e-08
1.22947e-06
-8.97524e-08
1.20948e-06
6.08569e-08
-9.4077e-08
1.20744e-06
1.28125e-06
1.04399e-07
1.25771e-06
-5.4922e-07
1.31828e-06
1.08626e-07
1.31085e-06
7.24773e-07
1.26469e-06
-1.14392e-07
1.28496e-06
1.79564e-07
1.29219e-06
-3.41787e-07
1.29845e-06
2.61553e-07
1.29583e-06
-3.12957e-07
1.30428e-06
3.03553e-07
1.29617e-06
8.13551e-08
1.30184e-06
2.13292e-07
1.28496e-06
2.29354e-08
1.28793e-06
1.91629e-08
1.2732e-06
-1.31047e-07
1.28185e-06
-1.21206e-08
1.27242e-06
-7.42825e-08
1.28054e-06
-9.78728e-08
1.2737e-06
6.77032e-08
-7.9752e-08
1.25937e-06
1.34048e-06
1.08019e-07
1.32177e-06
-5.30503e-07
1.37264e-06
5.77468e-08
1.37854e-06
7.18879e-07
1.33095e-06
-6.68019e-08
1.34824e-06
1.62268e-07
1.35282e-06
-3.46359e-07
1.36325e-06
2.51121e-07
1.35507e-06
-3.04781e-07
1.36512e-06
2.93509e-07
1.35454e-06
9.19303e-08
1.35928e-06
2.08548e-07
1.34457e-06
3.76495e-08
1.34437e-06
1.93622e-08
1.33202e-06
-1.18692e-07
1.3369e-06
-1.70011e-08
1.33025e-06
-6.76407e-08
1.33376e-06
-1.01382e-07
1.33247e-06
6.9001e-08
-6.35114e-08
1.31623e-06
1.40319e-06
1.13184e-07
1.39044e-06
-5.17752e-07
1.42906e-06
1.91267e-08
1.44322e-06
7.04716e-07
1.39919e-06
-2.2769e-08
1.41133e-06
1.50122e-07
1.41443e-06
-3.49456e-07
1.4257e-06
2.3985e-07
1.4152e-06
-2.94274e-07
1.42268e-06
2.86029e-07
1.41354e-06
1.01072e-07
1.41586e-06
2.06222e-07
1.40536e-06
4.8146e-08
1.40378e-06
2.09432e-08
1.39349e-06
-1.08395e-07
1.39715e-06
-2.06625e-08
1.39102e-06
-6.15085e-08
1.39258e-06
-1.02946e-07
1.3923e-06
6.92791e-08
-4.74201e-08
1.37621e-06
1.47011e-06
1.18749e-07
1.46268e-06
-5.10318e-07
1.48892e-06
-7.11455e-09
1.50524e-06
6.88395e-07
1.46954e-06
1.2933e-08
1.47663e-06
1.43034e-07
1.47887e-06
-3.51697e-07
1.48938e-06
2.2934e-07
1.47865e-06
-2.83552e-07
1.48301e-06
2.81675e-07
1.47564e-06
1.08437e-07
1.47701e-06
2.04853e-07
1.46956e-06
5.56021e-08
1.46897e-06
2.15327e-08
1.45967e-06
-9.90952e-08
1.46334e-06
-2.43319e-08
1.45728e-06
-5.54517e-08
1.45693e-06
-1.02599e-07
1.45728e-06
6.89348e-08
-3.08528e-08
1.44071e-06
1.54145e-06
1.23514e-07
1.53768e-06
-5.06544e-07
1.5533e-06
-2.27371e-08
1.56749e-06
6.74208e-07
1.54216e-06
3.82586e-08
1.54618e-06
1.39017e-07
1.54732e-06
-3.52836e-07
1.55691e-06
2.19744e-07
1.54656e-06
-2.73201e-07
1.54927e-06
2.78968e-07
1.54279e-06
1.14919e-07
1.54447e-06
2.0317e-07
1.53869e-06
6.13832e-08
1.53971e-06
2.05132e-08
1.53114e-06
-9.05284e-08
1.53492e-06
-2.81105e-08
1.52921e-06
-4.97476e-08
1.52676e-06
-1.00148e-07
1.52768e-06
6.8016e-08
-1.369e-08
1.51052e-06
1.61685e-06
1.2679e-07
1.61503e-06
-5.04722e-07
1.62265e-06
-3.03544e-08
1.63319e-06
6.63662e-07
1.61728e-06
5.41703e-08
1.62055e-06
1.35754e-07
1.62016e-06
-3.52447e-07
1.62908e-06
2.1082e-07
1.61894e-06
-2.63063e-07
1.62167e-06
2.7624e-07
1.61547e-06
1.21118e-07
1.61794e-06
2.00697e-07
1.61294e-06
6.63879e-08
1.61521e-06
1.82469e-08
1.60728e-06
-8.26048e-08
1.61101e-06
-3.18409e-08
1.60587e-06
-4.4601e-08
1.60137e-06
-9.5653e-08
1.60282e-06
6.65662e-08
3.78044e-09
1.58535e-06
1.69581e-06
1.28557e-07
1.69467e-06
-5.0358e-07
1.6969e-06
-3.25864e-08
1.70445e-06
6.56113e-07
1.69538e-06
6.32327e-08
1.69928e-06
1.31858e-07
1.69721e-06
-3.50379e-07
1.70565e-06
2.02387e-07
1.69542e-06
-2.52836e-07
1.69925e-06
2.7241e-07
1.6932e-06
1.27161e-07
1.6966e-06
1.97301e-07
1.69187e-06
7.11162e-08
1.69482e-06
1.52951e-08
1.6874e-06
-7.51781e-08
1.69078e-06
-3.52279e-08
1.68631e-06
-4.01226e-08
1.67997e-06
-8.93169e-08
1.68187e-06
6.46656e-08
2.10512e-08
1.6646e-06
1.77808e-06
1.29196e-07
1.77678e-06
-5.02276e-07
1.77579e-06
-3.15976e-08
1.78196e-06
6.4994e-07
1.77709e-06
6.81083e-08
1.78184e-06
1.27104e-07
1.77817e-06
-3.46707e-07
1.78625e-06
1.94307e-07
1.7757e-06
-2.42284e-07
1.78109e-06
2.67017e-07
1.77529e-06
1.32959e-07
1.77968e-06
1.92912e-07
1.77503e-06
7.5764e-08
1.7782e-06
1.21335e-08
1.77113e-06
-6.81083e-08
1.77378e-06
-3.78812e-08
1.77e-06
-3.63417e-08
1.76207e-06
-8.13874e-08
1.76426e-06
6.24749e-08
3.75151e-08
1.7478e-06
1.86383e-06
1.29118e-07
1.86178e-06
-5.00233e-07
1.85911e-06
-2.89195e-08
1.86557e-06
6.43476e-07
1.86288e-06
7.0797e-08
1.86803e-06
1.21957e-07
1.86286e-06
-3.4154e-07
1.87073e-06
1.8644e-07
1.85971e-06
-2.3127e-07
1.86672e-06
2.60011e-07
1.86128e-06
1.38402e-07
1.86671e-06
1.87483e-07
1.86214e-06
8.03271e-08
1.86517e-06
9.10339e-09
1.8584e-06
-6.1336e-08
1.85994e-06
-3.94196e-08
1.8568e-06
-3.32025e-08
1.84758e-06
-7.21654e-08
1.84978e-06
6.02754e-08
5.25492e-08
1.83474e-06
1.95338e-06
1.28575e-07
1.95021e-06
-4.97056e-07
1.94675e-06
-2.54602e-08
1.95473e-06
6.35492e-07
1.953e-06
7.25274e-08
1.95795e-06
1.17008e-07
1.95136e-06
-3.34955e-07
1.95914e-06
1.78662e-07
1.9476e-06
-2.19727e-07
1.95606e-06
2.51554e-07
1.95103e-06
1.4343e-07
1.95748e-06
1.81035e-07
1.95311e-06
8.46883e-08
1.95577e-06
6.4503e-09
1.94934e-06
-5.49061e-08
1.94948e-06
-3.95661e-08
1.94686e-06
-3.05837e-08
1.93672e-06
-6.20176e-08
1.93857e-06
5.84272e-08
6.56426e-08
1.92547e-06
2.04709e-06
1.27677e-07
2.04258e-06
-4.92547e-07
2.03877e-06
-2.16511e-08
2.04892e-06
6.25346e-07
2.04751e-06
7.39298e-08
2.05187e-06
1.12656e-07
2.04395e-06
-3.27036e-07
2.05172e-06
1.70892e-07
2.03962e-06
-2.07632e-07
2.04928e-06
2.41895e-07
2.04468e-06
1.4803e-07
2.05203e-06
1.73683e-07
2.04804e-06
8.86845e-08
2.05012e-06
4.36323e-09
2.04415e-06
-4.89327e-08
2.04279e-06
-3.82118e-08
2.04051e-06
-2.83008e-08
2.02986e-06
-5.13689e-08
2.03102e-06
5.72659e-08
7.65096e-08
2.02016e-06
2.14521e-06
1.26472e-07
2.13937e-06
-4.86709e-07
2.13536e-06
-1.76462e-08
2.14779e-06
6.1292e-07
2.14647e-06
7.52501e-08
2.15009e-06
1.09038e-07
2.14096e-06
-3.17905e-07
2.14875e-06
1.63095e-07
2.13612e-06
-1.94998e-07
2.14672e-06
2.31298e-07
2.14254e-06
1.52204e-07
2.15059e-06
1.65633e-07
2.14712e-06
9.21562e-08
2.1485e-06
2.9886e-09
2.14308e-06
-4.35225e-08
2.14032e-06
-3.54454e-08
2.13812e-06
-2.61066e-08
2.12741e-06
-4.06519e-08
2.12766e-06
5.70124e-08
8.51254e-08
2.11905e-06
2.24796e-06
1.25002e-07
2.24094e-06
-4.79691e-07
2.23678e-06
-1.34852e-08
2.25124e-06
5.98458e-07
2.24997e-06
7.65254e-08
2.2529e-06
1.06104e-07
2.24273e-06
-3.07733e-07
2.25055e-06
1.55273e-07
2.23743e-06
-1.81878e-07
2.24873e-06
2.20004e-07
2.24498e-06
1.5595e-07
2.25346e-06
1.57149e-07
2.25065e-06
9.49709e-08
2.2512e-06
2.43498e-09
2.2464e-06
-3.8721e-08
2.24247e-06
-3.15112e-08
2.24007e-06
-2.37089e-08
2.22969e-06
-3.02715e-08
2.22895e-06
5.77466e-08
9.16871e-08
2.22239e-06
2.35557e-06
1.23311e-07
2.34759e-06
-4.7171e-07
2.34328e-06
-9.18182e-09
2.35937e-06
5.82376e-07
2.35819e-06
7.77048e-08
2.36057e-06
1.03723e-07
2.34956e-06
-2.96728e-07
2.35739e-06
1.47446e-07
2.34387e-06
-1.68358e-07
2.35564e-06
2.08232e-07
2.35234e-06
1.59253e-07
2.36097e-06
1.48521e-07
2.3589e-06
9.70369e-08
2.35858e-06
2.75615e-09
2.35435e-06
-3.44969e-08
2.34957e-06
-2.67246e-08
2.34668e-06
-2.08247e-08
2.33696e-06
-2.05524e-08
2.3353e-06
5.94136e-08
9.65411e-08
2.33044e-06
2.46827e-06
1.21435e-07
2.45954e-06
-4.62977e-07
2.45511e-06
-4.75903e-09
2.47237e-06
5.65116e-07
2.47136e-06
7.87172e-08
2.47332e-06
1.01768e-07
2.46171e-06
-2.85122e-07
2.46951e-06
1.39646e-07
2.4557e-06
-1.54543e-07
2.46774e-06
1.96188e-07
2.46491e-06
1.62084e-07
2.47341e-06
1.40017e-07
2.47214e-06
9.831e-08
2.47097e-06
3.93009e-09
2.46721e-06
-3.07387e-08
2.4619e-06
-2.14133e-08
2.45834e-06
-1.72648e-08
2.44944e-06
-1.16569e-08
2.44701e-06
6.18398e-08
1.00106e-07
2.44345e-06
2.58633e-06
1.19401e-07
2.57701e-06
-4.53658e-07
2.57251e-06
-2.59971e-10
2.59055e-06
5.47077e-07
2.58977e-06
7.94968e-08
2.59138e-06
1.00162e-07
2.5794e-06
-2.7315e-07
2.58714e-06
1.31907e-07
2.57315e-06
-1.4055e-07
2.58528e-06
1.8406e-07
2.58295e-06
1.64414e-07
2.59111e-06
1.31857e-07
2.59061e-06
9.88054e-08
2.58868e-06
5.85835e-09
2.58523e-06
-2.72848e-08
2.57967e-06
-1.58515e-08
2.5754e-06
-1.2995e-08
2.56729e-06
-3.55099e-09
2.56438e-06
6.47554e-08
1.02805e-07
2.56168e-06
2.71001e-06
1.17223e-07
2.70021e-06
-4.43866e-07
2.69571e-06
4.24897e-09
2.7142e-06
5.28584e-07
2.71371e-06
7.99821e-08
2.71499e-06
9.88849e-08
2.70287e-06
-2.61026e-07
2.71051e-06
1.24269e-07
2.69645e-06
-1.26493e-07
2.7085e-06
1.72008e-07
2.70669e-06
1.66221e-07
2.71436e-06
1.24191e-07
2.71457e-06
9.8594e-08
2.71203e-06
8.39872e-09
2.70871e-06
-2.39649e-08
2.70309e-06
-1.02334e-08
2.69819e-06
-8.0879e-09
2.69073e-06
3.90484e-09
2.68763e-06
6.78588e-08
1.05e-07
2.68543e-06
2.83958e-06
1.1491e-07
2.82938e-06
-4.33663e-07
2.82495e-06
8.68135e-09
2.84364e-06
5.09895e-07
2.84351e-06
8.01076e-08
2.84443e-06
9.79648e-08
2.83233e-06
-2.4893e-07
2.83983e-06
1.16771e-07
2.82582e-06
-1.12477e-07
2.83767e-06
1.6015e-07
2.83639e-06
1.67502e-07
2.8435e-06
1.17088e-07
2.8443e-06
9.77892e-08
2.84129e-06
1.14123e-08
2.83799e-06
-2.0667e-08
2.83239e-06
-4.63838e-09
2.82697e-06
-2.66405e-09
2.82003e-06
1.08416e-08
2.81699e-06
7.08991e-08
1.06945e-07
2.81505e-06
2.97535e-06
1.1246e-07
2.96475e-06
-4.23071e-07
2.9605e-06
1.29374e-08
2.97918e-06
4.91216e-07
2.97949e-06
7.97969e-08
2.98e-06
9.74565e-08
2.96805e-06
-2.36989e-07
2.97538e-06
1.09445e-07
2.96148e-06
-9.85766e-08
2.97308e-06
1.48552e-07
2.97229e-06
1.68285e-07
2.97883e-06
1.10556e-07
2.9801e-06
9.6511e-08
2.97671e-06
1.48034e-08
2.9734e-06
-1.73536e-08
2.96782e-06
9.44e-10
2.962e-06
3.1526e-09
2.9555e-06
1.73472e-08
2.95269e-06
7.37005e-08
1.08772e-07
2.95087e-06
3.1176e-06
1.09867e-07
3.10661e-06
-4.12081e-07
3.10264e-06
1.69101e-08
3.12113e-06
4.72722e-07
3.12196e-06
7.89663e-08
3.122e-06
9.74185e-08
3.11029e-06
-2.25281e-07
3.11743e-06
1.02305e-07
3.10369e-06
-8.48321e-08
3.11501e-06
1.37227e-07
3.11467e-06
1.68628e-07
3.12066e-06
1.04564e-07
3.12232e-06
9.48565e-08
3.11859e-06
1.85316e-08
3.11526e-06
-1.40222e-08
3.10968e-06
6.52164e-09
3.10353e-06
9.30745e-09
3.09743e-06
2.34461e-08
3.09496e-06
7.6164e-08
1.10498e-07
3.09324e-06
3.26666e-06
1.07117e-07
3.25525e-06
-4.00668e-07
3.25167e-06
2.04884e-08
3.26982e-06
4.54571e-07
3.27125e-06
7.75339e-08
3.27078e-06
9.78916e-08
3.25933e-06
-2.13833e-07
3.26631e-06
9.53292e-08
3.25271e-06
-7.12403e-08
3.26379e-06
1.26147e-07
3.26382e-06
1.68598e-07
3.2693e-06
9.90913e-08
3.27129e-06
9.28599e-08
3.2672e-06
2.26243e-08
3.26385e-06
-1.06708e-08
3.25834e-06
1.20274e-08
3.25183e-06
1.58195e-08
3.24612e-06
2.91549e-08
3.24406e-06
7.82288e-08
1.12054e-07
3.2425e-06
3.42285e-06
1.04194e-07
3.41098e-06
-3.88793e-07
3.40791e-06
2.35569e-08
3.42557e-06
4.36915e-07
3.42767e-06
7.54322e-08
3.42668e-06
9.88836e-08
3.41546e-06
-2.0262e-07
3.42234e-06
8.8456e-08
3.40885e-06
-5.7759e-08
3.41974e-06
1.15267e-07
3.42009e-06
1.68241e-07
3.42501e-06
9.41687e-08
3.42738e-06
9.0494e-08
3.42287e-06
2.7132e-08
3.41943e-06
-7.23115e-09
3.41416e-06
1.7305e-08
3.40727e-06
2.26999e-08
3.40188e-06
3.45473e-08
3.40025e-06
7.98567e-08
1.13304e-07
3.399e-06
3.58653e-06
1.0108e-07
3.57414e-06
-3.76412e-07
3.5717e-06
2.59974e-08
3.58873e-06
4.19892e-07
3.59154e-06
7.26163e-08
3.59006e-06
1.00364e-07
3.57901e-06
-1.91564e-07
3.58588e-06
8.15797e-08
3.57244e-06
-4.43196e-08
3.58316e-06
1.04551e-07
3.58385e-06
1.67546e-07
3.58811e-06
8.99121e-08
3.59093e-06
8.7672e-08
3.58595e-06
3.2117e-08
3.5823e-06
-3.58555e-09
3.57742e-06
2.21832e-08
3.57027e-06
2.98545e-08
3.56503e-06
3.97836e-08
3.56385e-06
8.10404e-08
1.14091e-07
3.56306e-06
3.75803e-06
9.77562e-08
3.7451e-06
-3.6348e-07
3.7434e-06
2.76921e-08
3.75967e-06
4.03627e-07
3.76321e-06
6.90753e-08
3.76131e-06
1.02262e-07
3.75029e-06
-1.80542e-07
3.75732e-06
7.45535e-08
3.74384e-06
-3.08453e-08
3.75438e-06
9.4014e-08
3.75552e-06
1.66406e-07
3.7589e-06
8.65321e-08
3.76228e-06
8.42949e-08
3.75682e-06
3.75759e-08
3.75276e-06
4.7597e-10
3.74843e-06
2.6508e-08
3.74123e-06
3.70597e-08
3.73597e-06
4.5042e-08
3.73515e-06
8.18527e-08
1.14272e-07
3.73497e-06
3.93774e-06
9.42045e-08
3.92421e-06
-3.49952e-07
3.92337e-06
2.85316e-08
3.93878e-06
3.8822e-07
3.94302e-06
6.48392e-08
3.94083e-06
1.0445e-07
3.92966e-06
-1.69378e-07
3.93701e-06
6.72079e-08
3.92346e-06
-1.72933e-08
3.93371e-06
8.37647e-08
3.93551e-06
1.64601e-07
3.93773e-06
8.43138e-08
3.9417e-06
8.03203e-08
3.93593e-06
4.33445e-08
3.93115e-06
5.26099e-09
3.92745e-06
3.02029e-08
3.92053e-06
4.39892e-08
3.91513e-06
5.0437e-08
3.91453e-06
8.24551e-08
1.13774e-07
3.91503e-06
4.12605e-06
9.04092e-08
4.11188e-06
-3.3579e-07
4.11199e-06
2.84287e-08
4.12647e-06
3.73733e-07
4.13132e-06
5.99887e-08
4.12903e-06
1.0675e-07
4.1175e-06
-1.57851e-07
4.12534e-06
5.93651e-08
4.11172e-06
-3.67482e-09
4.12147e-06
7.40212e-08
4.12425e-06
1.61819e-07
4.12501e-06
8.35511e-08
4.12949e-06
7.58444e-08
4.12374e-06
4.90904e-08
4.118e-06
1.1006e-08
4.11483e-06
3.3364e-08
4.10852e-06
5.03021e-08
4.103e-06
5.59622e-08
4.10239e-06
8.30574e-08
1.12645e-07
4.10352e-06
4.32335e-06
8.63578e-08
4.30853e-06
-3.20968e-07
4.30963e-06
2.73288e-08
4.32319e-06
3.60172e-07
4.32852e-06
5.46636e-08
4.32634e-06
1.0893e-07
4.3142e-06
-1.45715e-07
4.32269e-06
5.08821e-08
4.30911e-06
9.89922e-09
4.31801e-06
6.51211e-08
4.32212e-06
1.57706e-07
4.32121e-06
8.4462e-08
4.3259e-06
7.1159e-08
4.32062e-06
5.43676e-08
4.31384e-06
1.77895e-08
4.31099e-06
3.62172e-08
4.30554e-06
5.57467e-08
4.30001e-06
6.1488e-08
4.29924e-06
8.38274e-08
1.11071e-07
4.30082e-06
4.53009e-06
8.20436e-08
4.5146e-06
-3.05478e-07
4.51671e-06
2.5218e-08
4.5294e-06
3.47477e-07
4.535e-06
4.90699e-08
4.53321e-06
1.10718e-07
4.52022e-06
-1.32725e-07
4.52941e-06
4.16908e-08
4.5161e-06
2.32043e-08
4.52374e-06
5.74832e-08
4.52944e-06
1.52004e-07
4.52693e-06
8.69795e-08
4.53129e-06
6.67978e-08
4.52693e-06
5.87268e-08
4.51925e-06
2.54669e-08
4.51639e-06
3.90779e-08
4.51194e-06
6.02012e-08
4.50662e-06
6.68045e-08
4.50559e-06
8.48613e-08
1.09287e-07
4.50737e-06
4.74669e-06
7.74673e-08
4.73055e-06
-2.89336e-07
4.73363e-06
2.21333e-08
4.7456e-06
3.35507e-07
4.75119e-06
4.34846e-08
4.75009e-06
1.11815e-07
4.73604e-06
-1.18673e-07
4.74587e-06
3.18583e-08
4.7332e-06
3.58735e-08
4.73912e-06
5.15709e-08
4.74649e-06
1.44629e-07
4.74274e-06
9.07294e-08
4.74613e-06
6.3406e-08
4.74298e-06
6.18765e-08
4.73479e-06
3.36638e-08
4.73158e-06
4.22858e-08
4.72811e-06
6.36665e-08
4.72322e-06
7.16971e-08
4.72192e-06
8.61613e-08
1.0749e-07
4.72372e-06
4.97363e-06
7.26399e-08
4.95688e-06
-2.72595e-07
4.96084e-06
1.81752e-08
4.97232e-06
3.24032e-07
4.97756e-06
3.82445e-08
4.97745e-06
1.11921e-07
4.96222e-06
-1.0344e-07
4.97246e-06
2.1613e-08
4.96089e-06
4.74474e-08
4.96469e-06
4.7769e-08
4.97356e-06
1.35755e-07
4.96918e-06
9.51176e-08
4.97102e-06
6.15635e-08
4.96914e-06
6.37525e-08
4.96093e-06
4.18767e-08
4.95713e-06
4.60808e-08
4.95452e-06
6.62855e-08
4.95026e-06
7.59505e-08
4.94874e-06
8.76879e-08
1.05795e-07
4.95043e-06
5.21137e-06
6.75854e-08
5.19412e-06
-2.55345e-07
5.19878e-06
1.35177e-08
5.21009e-06
3.1272e-07
5.21459e-06
3.37497e-08
5.21574e-06
1.10765e-07
5.19936e-06
-8.70536e-08
5.20958e-06
1.13881e-08
5.19964e-06
5.73868e-08
5.20109e-06
4.63239e-08
5.21104e-06
1.25806e-07
5.20668e-06
9.94761e-08
5.20665e-06
6.15928e-08
5.20581e-06
6.45881e-08
5.19813e-06
4.95633e-08
5.19366e-06
5.05426e-08
5.19163e-06
6.83229e-08
5.18819e-06
7.93817e-08
5.18653e-06
8.93515e-08
1.0427e-07
5.18806e-06
5.46043e-06
6.23415e-08
5.44281e-06
-2.37722e-07
5.44791e-06
8.41581e-09
5.4595e-06
3.01135e-07
5.4628e-06
3.04426e-08
5.46543e-06
1.08138e-07
5.44808e-06
-6.97004e-08
5.4577e-06
1.76307e-09
5.4499e-06
6.51938e-08
5.44899e-06
4.72298e-08
5.4594e-06
1.15394e-07
5.45563e-06
1.03251e-07
5.45372e-06
6.34986e-08
5.45354e-06
6.47743e-08
5.44682e-06
5.62784e-08
5.44176e-06
5.55983e-08
5.43998e-06
7.01093e-08
5.43749e-06
8.18718e-08
5.43583e-06
9.10079e-08
1.02981e-07
5.43712e-06
5.72134e-06
5.69612e-08
5.70352e-06
-2.19906e-07
5.70873e-06
3.2067e-09
5.72111e-06
2.88759e-07
5.72278e-06
2.87659e-08
5.72696e-06
1.03959e-07
5.70901e-06
-5.17473e-08
5.71737e-06
-6.59209e-09
5.71203e-06
7.05308e-08
5.70905e-06
5.02064e-08
5.71923e-06
1.05221e-07
5.71645e-06
1.06023e-07
5.71294e-06
6.70134e-08
5.71294e-06
6.47717e-08
5.70747e-06
6.17517e-08
5.70204e-06
6.10279e-08
5.70017e-06
7.19797e-08
5.69861e-06
8.34326e-08
5.69719e-06
9.24262e-08
1.01989e-07
5.69818e-06
5.99464e-06
5.15148e-08
5.97686e-06
-2.02122e-07
5.98175e-06
-1.68812e-09
5.99546e-06
2.75046e-07
5.99516e-06
2.90734e-08
6.00075e-06
9.83645e-08
5.98282e-06
-3.38171e-08
5.9892e-06
-1.29701e-08
5.98639e-06
7.33334e-08
5.98191e-06
5.46917e-08
5.99112e-06
9.60065e-08
5.98964e-06
1.07505e-07
5.98496e-06
7.16903e-08
5.98473e-06
6.50042e-08
5.98057e-06
6.59139e-08
5.97508e-06
6.65229e-08
5.97286e-06
7.41904e-08
5.97205e-06
8.42465e-08
5.97114e-06
9.33398e-08
1.01274e-07
5.97185e-06
6.28092e-06
4.60878e-08
6.26342e-06
-1.84624e-07
6.26752e-06
-5.78972e-09
6.28304e-06
2.5952e-07
6.28063e-06
3.14863e-08
6.28725e-06
9.17438e-08
6.27014e-06
-1.6705e-08
6.27394e-06
-1.67738e-08
6.2734e-06
7.38784e-08
6.26812e-06
5.99745e-08
6.27588e-06
8.82435e-08
6.27563e-06
1.07751e-07
6.27036e-06
7.69615e-08
6.26961e-06
6.57537e-08
6.26667e-06
6.8859e-08
6.26146e-06
7.17305e-08
6.25878e-06
7.68717e-08
6.25839e-06
8.46367e-08
6.2582e-06
9.3528e-08
1.00705e-07
6.25877e-06
6.58078e-06
4.07797e-08
6.56383e-06
-1.6768e-07
6.56665e-06
-8.60972e-09
6.58425e-06
2.41928e-07
6.58004e-06
3.56937e-08
6.58703e-06
8.47561e-08
6.57151e-06
-1.18417e-09
6.57241e-06
-1.76825e-08
6.57357e-06
7.27246e-08
6.56816e-06
6.53854e-08
6.57427e-06
8.21295e-08
6.57511e-06
1.06909e-07
6.56961e-06
8.24635e-08
6.56827e-06
6.70964e-08
6.56637e-06
7.07615e-08
6.56176e-06
7.63321e-08
6.55863e-06
8.00051e-08
6.5583e-06
8.49642e-08
6.55889e-06
9.29422e-08
1.00025e-07
6.55957e-06
6.89487e-06
3.56993e-08
6.87874e-06
-1.51545e-07
6.87994e-06
-9.81528e-09
6.89948e-06
2.22389e-07
6.89423e-06
4.09451e-08
6.90063e-06
7.83586e-08
6.88732e-06
1.21243e-08
6.88552e-06
-1.58814e-08
6.88755e-06
7.0689e-08
6.88256e-06
7.03812e-08
6.88718e-06
7.7501e-08
6.88879e-06
1.05301e-07
6.88334e-06
8.79125e-08
6.88135e-06
6.90883e-08
6.88031e-06
7.18047e-08
6.87658e-06
8.00624e-08
6.87315e-06
8.34327e-08
6.87257e-06
8.55492e-08
6.87377e-06
9.1734e-08
9.89515e-08
6.87485e-06
7.22387e-06
3.09626e-08
7.20877e-06
-1.36438e-07
7.20823e-06
-9.28298e-09
7.22927e-06
2.01349e-07
7.22403e-06
4.61917e-08
7.22885e-06
7.35356e-08
7.21797e-06
2.30046e-08
7.21416e-06
-1.20735e-08
7.21619e-06
6.86646e-08
7.21188e-06
7.46922e-08
7.21537e-06
7.40075e-08
7.21751e-06
1.03162e-07
7.21227e-06
9.3146e-08
7.20956e-06
7.1798e-08
7.20912e-06
7.22468e-08
7.2065e-06
8.26891e-08
7.20305e-06
8.6877e-08
7.20198e-06
8.66203e-08
7.20351e-06
9.02029e-08
9.727e-08
7.20519e-06
7.5685e-06
2.6684e-08
7.55463e-06
-1.22559e-07
7.55238e-06
-7.03254e-09
7.57423e-06
1.79495e-07
7.57013e-06
5.0295e-08
7.57262e-06
7.10421e-08
7.56398e-06
3.16478e-08
7.55907e-06
-7.1673e-09
7.56052e-06
6.72099e-08
7.55668e-06
7.85372e-08
7.55939e-06
7.12931e-08
7.56208e-06
1.00478e-07
7.55718e-06
9.80468e-08
7.55367e-06
7.53074e-08
7.55353e-06
7.23857e-08
7.55212e-06
8.40999e-08
7.54902e-06
8.99779e-08
7.5474e-06
8.82333e-08
7.54886e-06
8.87468e-08
9.49085e-08
7.55122e-06
7.92952e-06
2.29744e-08
7.91709e-06
-1.10129e-07
7.91324e-06
-3.1769e-09
7.93504e-06
1.57691e-07
7.93304e-06
5.22921e-08
7.93295e-06
7.11304e-08
7.92598e-06
3.86173e-08
7.92087e-06
-2.05707e-09
7.92148e-06
6.66033e-08
7.91772e-06
8.22935e-08
7.91977e-06
6.92472e-08
7.92318e-06
9.70688e-08
7.91886e-06
1.02363e-07
7.91452e-06
7.9648e-08
7.91431e-06
7.26007e-08
7.91407e-06
8.43327e-08
7.91169e-06
9.23637e-08
7.9097e-06
9.02231e-08
7.91068e-06
8.7764e-08
9.19947e-08
7.9136e-06
8.30772e-06
1.99351e-08
8.29695e-06
-9.93567e-08
8.29171e-06
2.06349e-09
8.31245e-06
1.36945e-07
8.31325e-06
5.14955e-08
8.31093e-06
7.34511e-08
8.30467e-06
4.48805e-08
8.30006e-06
2.5447e-09
8.29999e-06
6.66763e-08
8.29593e-06
8.63504e-08
8.29713e-06
6.80489e-08
8.3014e-06
9.28043e-08
8.29809e-06
1.05669e-07
8.29304e-06
8.47037e-08
8.29234e-06
7.32935e-08
8.29306e-06
8.36135e-08
8.2917e-06
9.37239e-08
8.28968e-06
9.2245e-08
8.28994e-06
8.75e-08
8.88933e-08
8.29305e-06
8.70395e-06
1.76494e-08
8.69502e-06
-9.04257e-08
8.68865e-06
8.43111e-09
8.70739e-06
1.18203e-07
8.71125e-06
4.76359e-08
8.70764e-06
7.70607e-08
8.70091e-06
5.16149e-08
8.69712e-06
6.33149e-09
8.69702e-06
6.6773e-08
8.6924e-06
9.09788e-08
8.69236e-06
6.80873e-08
8.69736e-06
8.78046e-08
8.69555e-06
1.07475e-07
8.69011e-06
9.01408e-08
8.6886e-06
7.48072e-08
8.68991e-06
8.23064e-08
8.68972e-06
9.39067e-08
8.68806e-06
9.39049e-08
8.68769e-06
8.78769e-08
8.6157e-08
8.69042e-06
9.11911e-06
1.61608e-08
9.11205e-06
-8.33714e-08
9.10496e-06
1.55206e-08
9.12091e-06
1.02253e-07
9.12765e-06
4.09035e-08
9.12403e-06
8.06818e-08
9.11591e-06
5.97289e-08
9.11261e-06
9.63405e-09
9.11324e-06
6.61404e-08
9.10832e-06
9.59013e-08
9.10654e-06
6.9868e-08
9.11181e-06
8.25341e-08
9.11187e-06
1.07413e-07
9.1066e-06
9.54118e-08
9.10411e-06
7.72961e-08
9.10555e-06
8.08695e-08
9.10649e-06
9.29672e-08
9.10553e-06
9.48653e-08
9.10488e-06
8.8528e-08
8.42274e-08
9.10681e-06
9.55415e-06
1.54683e-08
9.54888e-06
-7.80969e-08
9.54154e-06
2.28536e-08
9.5542e-06
8.95962e-08
9.56314e-06
3.19627e-08
9.56086e-06
8.29652e-08
9.55098e-06
6.96081e-08
9.54732e-06
1.32929e-08
9.54929e-06
6.41756e-08
9.54469e-06
1.00501e-07
9.54092e-06
7.36297e-08
9.54569e-06
7.7764e-08
9.54774e-06
1.05372e-07
9.54326e-06
9.98836e-08
9.53994e-06
8.06191e-08
9.54102e-06
7.97866e-08
9.54286e-06
9.11281e-08
9.54279e-06
9.49344e-08
9.54229e-06
8.90326e-08
8.31414e-08
9.54337e-06
1.00101e-05
1.55163e-08
1.00063e-05
-7.43421e-08
9.99933e-06
2.98509e-08
1.00085e-05
8.04788e-08
1.00186e-05
2.17933e-08
1.00188e-05
8.27673e-08
1.00075e-05
8.09578e-08
1.00024e-05
1.83343e-08
1.00058e-05
6.08408e-08
1.00023e-05
1.03969e-07
9.9969e-06
7.9029e-08
1.00002e-05
7.44562e-08
1.00039e-05
1.0166e-07
1.00008e-05
1.02959e-07
9.99706e-06
8.43953e-08
9.99744e-06
7.94065e-08
9.99986e-06
8.87125e-08
1.00007e-05
9.40968e-08
1.00007e-05
8.90518e-08
8.25504e-08
1.00013e-05
1.0488e-05
1.61856e-08
1.04853e-05
-7.16822e-08
1.04793e-05
3.58494e-08
1.04849e-05
7.49247e-08
1.04951e-05
1.15277e-08
1.04984e-05
7.95036e-08
1.04867e-05
9.2682e-08
1.04793e-05
2.5688e-08
1.04835e-05
5.666e-08
1.04819e-05
1.05534e-07
1.04755e-05
8.54509e-08
1.04767e-05
7.32192e-08
1.04814e-05
9.69927e-08
1.04801e-05
1.04254e-07
1.04764e-05
8.81385e-08
1.0476e-05
7.98166e-08
1.04786e-05
8.6112e-08
1.04802e-05
9.24475e-08
1.04808e-05
8.84305e-08
8.19751e-08
1.04814e-05
1.09889e-05
1.7311e-08
1.09868e-05
-6.96261e-08
1.09824e-05
4.02457e-08
1.09847e-05
7.26837e-08
1.09938e-05
2.41204e-09
1.10003e-05
7.30339e-08
1.09896e-05
1.03372e-07
1.09795e-05
3.57497e-08
1.09836e-05
5.25816e-08
1.09844e-05
1.04762e-07
1.09777e-05
9.20914e-08
1.09768e-05
7.41628e-08
1.09815e-05
9.23234e-08
1.0982e-05
1.03738e-07
1.09788e-05
9.12974e-08
1.09777e-05
8.0907e-08
1.09801e-05
8.37079e-08
1.09825e-05
9.00895e-08
1.09836e-05
8.7277e-08
8.09646e-08
1.09846e-05
1.1514e-05
1.86903e-08
1.1512e-05
-6.76702e-08
1.15097e-05
4.25973e-08
1.15091e-05
7.32165e-08
1.15159e-05
-4.37975e-09
1.15253e-05
6.3671e-08
1.1517e-05
1.11659e-07
1.15046e-05
4.81871e-08
1.15073e-05
4.98465e-08
1.15103e-05
1.0177e-07
1.15045e-05
9.78484e-08
1.15015e-05
7.71637e-08
1.15054e-05
8.84239e-08
1.15074e-05
1.01814e-07
1.15053e-05
9.33746e-08
1.15038e-05
8.23932e-08
1.15057e-05
8.17973e-08
1.15086e-05
8.7207e-08
1.15102e-05
8.5695e-08
7.94486e-08
1.15117e-05
1.20644e-05
2.00993e-08
1.2062e-05
-6.5302e-08
1.2062e-05
4.2643e-08
1.20595e-05
7.5747e-08
1.2063e-05
-7.89393e-09
1.20745e-05
5.21534e-08
1.20698e-05
1.16355e-07
1.20558e-05
6.2223e-08
1.20561e-05
4.95458e-08
1.20608e-05
9.70162e-08
1.20567e-05
1.01974e-07
1.20523e-05
8.15208e-08
1.20548e-05
8.59151e-08
1.20576e-05
9.90299e-08
1.20568e-05
9.42415e-08
1.20553e-05
8.38265e-08
1.20566e-05
8.05415e-08
1.20597e-05
8.40968e-08
1.20618e-05
8.3641e-08
7.76042e-08
1.20636e-05
1.26414e-05
2.13166e-08
1.26381e-05
-6.20742e-08
1.26404e-05
4.03858e-08
1.26368e-05
7.93354e-08
1.26366e-05
-7.64132e-09
1.26491e-05
3.96235e-08
1.26486e-05
1.1681e-07
1.26342e-05
7.66978e-08
1.26316e-05
5.21207e-08
1.26372e-05
9.14226e-08
1.26351e-05
1.04075e-07
1.26302e-05
8.63821e-08
1.26311e-05
8.50039e-08
1.26342e-05
9.59899e-08
1.26344e-05
9.40365e-08
1.26334e-05
8.47793e-08
1.26341e-05
7.98374e-08
1.26371e-05
8.11555e-08
1.26397e-05
8.1044e-08
7.5574e-08
1.26417e-05
1.32461e-05
2.21511e-08
1.32417e-05
-5.76857e-08
1.3246e-05
3.61302e-08
1.32423e-05
8.2962e-08
1.32384e-05
-3.65446e-09
1.32506e-05
2.74191e-08
1.32542e-05
1.13148e-07
1.32409e-05
9.00522e-08
1.32355e-05
5.74928e-08
1.32407e-05
8.61906e-08
1.32408e-05
1.0395e-07
1.32362e-05
9.10185e-08
1.32357e-05
8.54713e-08
1.32385e-05
9.32679e-08
1.32395e-05
9.29802e-08
1.32392e-05
8.51397e-08
1.32397e-05
7.93059e-08
1.32422e-05
7.86421e-08
1.32451e-05
7.81091e-08
7.32837e-08
1.32474e-05
1.38798e-05
2.24702e-08
1.38742e-05
-5.20238e-08
1.38799e-05
3.0462e-08
1.38772e-05
8.56394e-08
1.387e-05
3.53983e-09
1.38803e-05
1.70713e-08
1.38876e-05
1.0587e-07
1.38769e-05
1.00798e-07
1.38692e-05
6.51854e-08
1.38731e-05
8.22902e-08
1.38751e-05
1.01929e-07
1.38714e-05
9.46701e-08
1.387e-05
8.69505e-08
1.38721e-05
9.11563e-08
1.38737e-05
9.13942e-08
1.38739e-05
8.4912e-08
1.38745e-05
7.86441e-08
1.38767e-05
7.6445e-08
1.38797e-05
7.51353e-08
7.07297e-08
1.38823e-05
1.45439e-05
2.22078e-08
1.45371e-05
-4.51541e-08
1.45434e-05
2.41294e-08
1.45424e-05
8.66191e-08
1.4533e-05
1.29725e-08
1.45401e-05
9.96881e-09
1.45502e-05
9.57273e-08
1.4543e-05
1.08032e-07
1.4534e-05
7.41561e-08
1.4536e-05
8.02703e-08
1.45392e-05
9.87862e-08
1.4537e-05
9.68108e-08
1.45351e-05
8.88855e-08
1.45365e-05
8.97517e-08
1.45383e-05
8.95583e-08
1.45391e-05
8.41952e-08
1.45399e-05
7.77938e-08
1.45419e-05
7.44083e-08
1.45448e-05
7.22485e-08
6.80277e-08
1.45475e-05
1.52397e-05
2.13762e-08
1.52319e-05
-3.73315e-08
1.52381e-05
1.79357e-08
1.52392e-05
8.54631e-08
1.52286e-05
2.35696e-08
1.52318e-05
6.83548e-09
1.52436e-05
8.38949e-08
1.52403e-05
1.11354e-07
1.52313e-05
8.31905e-08
1.52313e-05
8.02405e-08
1.52348e-05
9.52845e-08
1.52341e-05
9.74458e-08
1.52324e-05
9.05981e-08
1.52332e-05
8.8972e-08
1.52351e-05
8.76369e-08
1.52363e-05
8.30039e-08
1.52373e-05
7.68367e-08
1.52393e-05
7.23964e-08
1.5242e-05
6.95392e-08
6.52709e-08
1.52448e-05
1.59686e-05
2.00583e-08
1.59603e-05
-2.89667e-08
1.59656e-05
1.26026e-08
1.59689e-05
8.21802e-08
1.59583e-05
3.41815e-08
1.59575e-05
7.59818e-09
1.59694e-05
7.19917e-08
1.597e-05
1.10804e-07
1.5962e-05
9.11238e-08
1.59603e-05
8.19755e-08
1.59636e-05
9.19726e-08
1.59643e-05
9.67743e-08
1.59632e-05
9.17149e-08
1.59637e-05
8.84243e-08
1.59655e-05
8.58302e-08
1.59673e-05
8.12768e-08
1.59684e-05
7.57048e-08
1.59702e-05
7.05471e-08
1.59729e-05
6.68833e-08
6.26667e-08
1.59755e-05
1.67323e-05
1.839e-08
1.67238e-05
-2.05218e-08
1.67278e-05
8.61238e-09
1.67327e-05
7.72936e-08
1.67232e-05
4.36452e-08
1.67192e-05
1.1684e-08
1.67296e-05
6.152e-08
1.67336e-05
1.0685e-07
1.67276e-05
9.7085e-08
1.67248e-05
8.48036e-08
1.67274e-05
8.93997e-08
1.67291e-05
9.50173e-08
1.67287e-05
9.2142e-08
1.67293e-05
8.77743e-08
1.67311e-05
8.40836e-08
1.67332e-05
7.91918e-08
1.67348e-05
7.40871e-08
1.67364e-05
6.89434e-08
1.67389e-05
6.43516e-08
6.01977e-08
1.67414e-05
1.75322e-05
1.65296e-08
1.75242e-05
-1.24696e-08
1.75265e-05
6.29947e-09
1.75324e-05
7.13542e-08
1.75248e-05
5.13078e-08
1.75183e-05
1.81084e-08
1.75264e-05
5.34617e-08
1.75327e-05
1.00538e-07
1.75292e-05
1.00566e-07
1.75262e-05
8.78592e-08
1.75278e-05
8.77302e-08
1.75302e-05
9.26274e-08
1.75306e-05
9.17281e-08
1.75314e-05
8.70422e-08
1.75333e-05
8.21404e-08
1.75355e-05
7.69792e-08
1.75377e-05
7.19409e-08
1.75393e-05
6.72864e-08
1.75414e-05
6.23114e-08
5.77417e-08
1.75438e-05
1.83702e-05
1.46331e-08
1.83629e-05
-5.16243e-09
1.83635e-05
5.72143e-09
1.83699e-05
6.50019e-08
1.83643e-05
5.69227e-08
1.83567e-05
2.56821e-08
1.83619e-05
4.8279e-08
1.83693e-05
9.30771e-08
1.83685e-05
1.01368e-07
1.83659e-05
9.04975e-08
1.83669e-05
8.67257e-08
1.83694e-05
9.00842e-08
1.83707e-05
9.04998e-08
1.83715e-05
8.6197e-08
1.83734e-05
8.02299e-08
1.83759e-05
7.45045e-08
1.83783e-05
6.9561e-08
1.83803e-05
6.52727e-08
1.8382e-05
6.05693e-08
5.55147e-08
1.83842e-05
1.92482e-05
1.28165e-08
1.92418e-05
1.23154e-09
1.92409e-05
6.63969e-09
1.9247e-05
5.88542e-08
1.92434e-05
6.05782e-08
1.92357e-05
3.33396e-08
1.92382e-05
4.57763e-08
1.92457e-05
8.56202e-08
1.92472e-05
9.98437e-08
1.92455e-05
9.21912e-08
1.92461e-05
8.60987e-08
1.92487e-05
8.75144e-08
1.92505e-05