/*--------------------------------*- C++ -*----------------------------------*\
| =========                 |                                                 |
| \\      /  F ield         | OpenFOAM: The Open Source CFD Toolbox           |
|  \\    /   O peration     | Version:  2106                                  |
|   \\  /    A nd           | Website:  www.openfoam.com                      |
|    \\/     M anipulation  |                                                 |
\*---------------------------------------------------------------------------*/
FoamFile
{
    version     2.0;
    format      ascii;
    arch        "LSB;label=32;scalar=64";
    class       volVectorField;
    location    "0.775";
    object      U;
}
// * * * * * * * * * * * * * * * * * * * * * * * * * * * * * * * * * * * * * //

dimensions      [0 1 -1 0 0 0 0];

internalField   nonuniform List<vector> 
9600
(
(0.860284 -0.00816574 0)
(1.12788 0.00629387 0)
(0.889996 0.00116644 0)
(1.13252 -0.00178554 0)
(0.922018 0.00425238 0)
(1.12063 -0.00334836 0)
(0.886912 0.00207727 0)
(1.16196 -0.00754879 0)
(0.875001 -0.00730504 0)
(1.15678 0.00138443 0)
(0.908127 0.000998623 0)
(1.11005 0.00513856 0)
(0.922888 0.00327263 0)
(1.09558 0.00303104 0)
(0.918027 0.00767127 0)
(1.0867 -0.00486513 0)
(0.899934 0.00719751 0)
(1.09451 -0.00689394 0)
(0.875043 0.00542031 0)
(1.10407 -0.0117086 0)
(0.871948 -0.00816723 0)
(1.12136 0.0062394 0)
(0.907006 0.000977777 0)
(1.12159 -0.00188178 0)
(0.937191 0.00415528 0)
(1.10537 -0.00275211 0)
(0.907281 0.00133627 0)
(1.13682 -0.00721227 0)
(0.897955 -0.00748602 0)
(1.13284 0.0010946 0)
(0.935329 0.00151053 0)
(1.08502 0.00512349 0)
(0.955906 0.00336778 0)
(1.06162 0.00327349 0)
(0.96385 0.00769975 0)
(1.03745 -0.00435464 0)
(0.964056 0.00691068 0)
(1.02097 -0.00671601 0)
(0.97208 0.00613372 0)
(0.993748 -0.0131422 0)
(0.890792 -0.008183 0)
(1.10653 0.00607001 0)
(0.934828 0.000878027 0)
(1.1004 -0.00198715 0)
(0.962877 0.00418189 0)
(1.08111 -0.00235409 0)
(0.940087 0.000927634 0)
(1.0999 -0.00692023 0)
(0.935214 -0.00761067 0)
(1.09336 0.000754679 0)
(0.973683 0.00210667 0)
(1.05231 0.00489143 0)
(0.991033 0.00369974 0)
(1.03045 0.00321369 0)
(0.998223 0.00805326 0)
(1.01344 -0.00419982 0)
(0.995512 0.00692694 0)
(1.0061 -0.00627833 0)
(0.997427 0.00551453 0)
(0.996248 -0.00926047 0)
(0.91352 -0.00820427 0)
(1.0851 0.00578948 0)
(0.964157 0.000864046 0)
(1.07312 -0.00210713 0)
(0.989065 0.00426262 0)
(1.0544 -0.00207058 0)
(0.97295 0.000704024 0)
(1.06192 -0.00681867 0)
(0.969251 -0.00759422 0)
(1.05594 0.000329089 0)
(1.00273 0.0025503 0)
(1.03162 0.00469177 0)
(1.01081 0.00400493 0)
(1.01792 0.00313485 0)
(1.01236 0.00830109 0)
(1.01017 -0.00404706 0)
(1.00546 0.00703371 0)
(1.00644 -0.00624258 0)
(1.00264 0.00586495 0)
(0.999337 -0.00782461 0)
(0.936523 -0.0082114 0)
(1.06123 0.00543095 0)
(0.987755 0.000927609 0)
(1.0462 -0.00223835 0)
(1.00758 0.0043562 0)
(1.03118 -0.0018745 0)
(0.996548 0.000640764 0)
(1.03146 -0.00675059 0)
(0.989377 -0.00754939 0)
(1.03056 -0.000103978 0)
(1.01661 0.00276887 0)
(1.02405 0.00461549 0)
(1.01915 0.00421112 0)
(1.01615 0.00315329 0)
(1.01786 0.00838724 0)
(1.01198 -0.00374532 0)
(1.0091 0.00693799 0)
(1.00727 -0.00585227 0)
(1.00354 0.00585744 0)
(0.999214 -0.00656231 0)
(0.956688 -0.00819351 0)
(1.03927 0.00504316 0)
(1.00252 0.00103608 0)
(1.02484 -0.00235102 0)
(1.01575 0.00443959 0)
(1.01453 -0.00174848 0)
(1.00862 0.000670388 0)
(1.01156 -0.00664053 0)
(0.996494 -0.00756636 0)
(1.01607 -0.00049878 0)
(1.01958 0.00277287 0)
(1.02166 0.00456453 0)
(1.0218 0.00436558 0)
(1.0167 0.00319476 0)
(1.01968 0.00843936 0)
(1.01338 -0.00341396 0)
(1.00997 0.00685301 0)
(1.00738 -0.00528195 0)
(1.00282 0.0056795 0)
(0.99832 -0.00506877 0)
(0.972313 -0.00814977 0)
(1.02198 0.00467565 0)
(1.00913 0.00115517 0)
(1.01084 -0.00241885 0)
(1.01577 0.00449579 0)
(1.00442 -0.00167628 0)
(1.01207 0.000741618 0)
(1.00081 -0.00647952 0)
(0.996655 -0.00763488 0)
(1.00757 -0.000874774 0)
(1.0169 0.00262671 0)
(1.01905 0.00447442 0)
(1.02082 0.00447932 0)
(1.01599 0.00323927 0)
(1.01869 0.00847637 0)
(1.01305 -0.00304358 0)
(1.00888 0.00679529 0)
(1.00648 -0.00462224 0)
(1.00142 0.00549402 0)
(0.997129 -0.00349408 0)
(0.983249 -0.00808454 0)
(1.00999 0.00436172 0)
(1.01023 0.00125852 0)
(1.00309 -0.00243688 0)
(1.01171 0.0045227 0)
(0.99922 -0.00164435 0)
(1.01112 0.000820763 0)
(0.996319 -0.00628921 0)
(0.994923 -0.00770609 0)
(1.00185 -0.00122907 0)
(1.01194 0.00241268 0)
(1.01489 0.00433975 0)
(1.01726 0.00455931 0)
(1.01338 0.00328281 0)
(1.01566 0.00849121 0)
(1.01114 -0.00264041 0)
(1.00667 0.0067106 0)
(1.00483 -0.00389457 0)
(0.999913 0.00527355 0)
(0.99602 -0.00194704 0)
(0.990351 -0.00800308 0)
(1.00245 0.00411019 0)
(1.00857 0.00133405 0)
(0.999415 -0.00241611 0)
(1.00689 0.00452669 0)
(0.997175 -0.00164342 0)
(1.0088 0.000885892 0)
(0.995475 -0.00609457 0)
(0.993603 -0.00773897 0)
(0.997737 -0.00153234 0)
(1.00658 0.00218832 0)
(1.00981 0.00417995 0)
(1.0124 0.00461201 0)
(1.00953 0.00331644 0)
(1.01166 0.00846682 0)
(1.00842 -0.00222467 0)
(1.00412 0.00656648 0)
(1.00296 -0.00312748 0)
(0.998608 0.00499617 0)
(0.995216 -0.000499092 0)
(0.994768 -0.0079098 0)
(0.997989 0.00391338 0)
(1.00607 0.00138363 0)
(0.997899 -0.00237204 0)
(1.00296 0.00451129 0)
(0.996916 -0.00166469 0)
(1.00653 0.000929493 0)
(0.996401 -0.00591139 0)
(0.993112 -0.00771142 0)
(0.994882 -0.00176394 0)
(1.00187 0.00198556 0)
(1.00482 0.00401672 0)
(1.00743 0.00463675 0)
(1.00546 0.0033362 0)
(1.00766 0.00838905 0)
(1.00562 -0.00181472 0)
(1.00175 0.00635422 0)
(1.00124 -0.00234547 0)
(0.997596 0.00467293 0)
(0.994704 0.000821942 0)
(0.997479 -0.00780774 0)
(0.995424 0.00375855 0)
(1.00369 0.00141259 0)
(0.997386 -0.00231892 0)
(1.00027 0.00447686 0)
(0.997494 -0.0016982 0)
(1.00468 0.000951729 0)
(0.997892 -0.00574502 0)
(0.993171 -0.00761999 0)
(0.992984 -0.00192045 0)
(0.998229 0.00181936 0)
(1.00058 0.00386197 0)
(1.00311 0.00463542 0)
(1.00189 0.00334253 0)
(1.00423 0.00825004 0)
(1.00318 -0.0014133 0)
(0.999801 0.00607862 0)
(0.999817 -0.00156967 0)
(0.996853 0.00432359 0)
(0.994383 0.00201027 0)
(0.999143 -0.00769841 0)
(0.993946 0.00363295 0)
(1.00179 0.00142733 0)
(0.997304 -0.00226542 0)
(0.998554 0.00442457 0)
(0.998301 -0.00173537 0)
(1.00321 0.000955628 0)
(0.99927 -0.00559548 0)
(0.993457 -0.0074732 0)
(0.991742 -0.00200996 0)
(0.995686 0.00168875 0)
(0.997356 0.00372231 0)
(0.99978 0.00461074 0)
(0.999148 0.00334117 0)
(1.00161 0.00804738 0)
(1.00128 -0.00101223 0)
(0.998334 0.00574909 0)
(0.99871 -0.000815839 0)
(0.996331 0.0039712 0)
(0.994173 0.00303391 0)
(1.00016 -0.00758226 0)
(0.993091 0.00352559 0)
(1.00045 0.00143384 0)
(0.997397 -0.00221548 0)
(0.99749 0.0043579 0)
(0.999004 -0.00177048 0)
(1.00205 0.000945966 0)
(1.00024 -0.00546089 0)
(0.993782 -0.00728347 0)
(0.990938 -0.00204528 0)
(0.994058 0.00158388 0)
(0.995145 0.00360193 0)
(0.99744 0.00456266 0)
(0.997272 0.00333974 0)
(0.999769 0.00779475 0)
(0.999956 -0.000615495 0)
(0.997324 0.00538646 0)
(0.997911 -0.000111447 0)
(0.996004 0.00365946 0)
(0.994047 0.00387097 0)
(1.00075 -0.0074591 0)
(0.992611 0.00342761 0)
(0.999565 0.00143609 0)
(0.99755 -0.00217033 0)
(0.996843 0.00428186 0)
(0.999482 -0.00180114 0)
(1.00117 0.000927634 0)
(1.00078 -0.00533755 0)
(0.994066 -0.00706488 0)
(0.990451 -0.00203773 0)
(0.993116 0.00149196 0)
(0.993791 0.00350266 0)
(0.995954 0.0044892 0)
(0.996145 0.00334486 0)
(0.998595 0.00750409 0)
(0.999119 -0.00022206 0)
(0.99671 0.00501751 0)
(0.997386 0.000554563 0)
(0.995858 0.00342274 0)
(0.994008 0.00452 0)
(1.00107 -0.00732855 0)
(0.992375 0.00333196 0)
(0.999033 0.00143766 0)
(0.997706 -0.0021303 0)
(0.996474 0.00420145 0)
(0.999741 -0.00182714 0)
(1.00057 0.000904115 0)
(1.00097 -0.00521998 0)
(0.994284 -0.00683081 0)
(0.990217 -0.00199865 0)
(0.992651 0.00140189 0)
(0.993083 0.00342288 0)
(0.995125 0.00439195 0)
(0.995584 0.00335486 0)
(0.997923 0.00718797 0)
(0.998653 0.000161672 0)
(0.996409 0.00466927 0)
(0.997083 0.00117293 0)
(0.995865 0.00326849 0)
(0.994062 0.00500339 0)
(1.00123 -0.00719027 0)
(0.992298 0.00323324 0)
(0.998731 0.00144173 0)
(0.99784 -0.00209576 0)
(0.99629 0.00412012 0)
(0.999843 -0.0018486 0)
(1.00019 0.000876555 0)
(1.00095 -0.0051022 0)
(0.994441 -0.00659242 0)
(0.990179 -0.00193585 0)
(0.992496 0.00130575 0)
(0.992804 0.00336019 0)
(0.994742 0.0042749 0)
(0.995397 0.00336887 0)
(0.997584 0.00685749 0)
(0.99843 0.000532393 0)
(0.996325 0.00435494 0)
(0.99694 0.00172333 0)
(0.995986 0.00319871 0)
(0.994203 0.00534875 0)
(1.00129 -0.00704404 0)
(0.992323 0.00312764 0)
(0.998564 0.00145096 0)
(0.997949 -0.00206717 0)
(0.996218 0.00404005 0)
(0.999855 -0.00186685 0)
(0.999962 0.000846303 0)
(1.00083 -0.00497991 0)
(0.994555 -0.00635763 0)
(0.990272 -0.00185367 0)
(0.992526 0.00119703 0)
(0.99277 0.00331084 0)
(0.994624 0.00414063 0)
(0.995421 0.00338872 0)
(0.997433 0.00652303 0)
(0.998338 0.00088894 0)
(0.996369 0.00409296 0)
(0.996895 0.00220912 0)
(0.996176 0.00319583 0)
(0.99441 0.00558553 0)
(1.0013 -0.00688983 0)
(0.992409 0.00301291 0)
(0.998465 0.00146707 0)
(0.998037 -0.00204495 0)
(0.996205 0.00396256 0)
(0.999827 -0.00188337 0)
(0.999832 0.000813335 0)
(1.00067 -0.0048486 0)
(0.994649 -0.00613176 0)
(0.990441 -0.00175492 0)
(0.992653 0.00107307 0)
(0.992854 0.00327256 0)
(0.994634 0.00399371 0)
(0.99554 0.00340817 0)
(0.997369 0.00620409 0)
(0.998301 0.00121444 0)
(0.996476 0.00389929 0)
(0.9969 0.00262977 0)
(0.996399 0.00324074 0)
(0.994663 0.00574612 0)
(1.00129 -0.00672761 0)
(0.992528 0.00288779 0)
(0.998396 0.00149137 0)
(0.998113 -0.00202964 0)
(0.996217 0.00388808 0)
(0.999784 -0.00189799 0)
(0.999751 0.000776107 0)
(1.00051 -0.00470484 0)
(0.99474 -0.00591896 0)
(0.990646 -0.00164112 0)
(0.992824 0.000935126 0)
(0.99298 0.00324168 0)
(0.994689 0.00384214 0)
(0.995685 0.00341807 0)
(0.997333 0.00591304 0)
(0.998276 0.00149477 0)
(0.996605 0.00375455 0)
(0.996927 0.00300245 0)
(0.996629 0.00330942 0)
(0.994945 0.00584124 0)
(1.00127 -0.00655729 0)
(0.992666 0.00275139 0)
(0.998338 0.00152483 0)
(0.998183 -0.00202159 0)
(0.996236 0.0038165 0)
(0.999739 -0.00190973 0)
(0.999693 0.000732907 0)
(1.00036 -0.00454784 0)
(0.994837 -0.00572035 0)
(0.990864 -0.00150864 0)
(0.993012 0.000787153 0)
(0.993117 0.00320984 0)
(0.99475 0.00369727 0)
(0.995829 0.00340302 0)
(0.9973 0.00565998 0)
(0.998246 0.0017389 0)
(0.996742 0.00364475 0)
(0.996962 0.00334019 0)
(0.996852 0.00339363 0)
(0.995247 0.00587612 0)
(1.00125 -0.00637898 0)
(0.992814 0.00260353 0)
(0.998283 0.00156761 0)
(0.998253 -0.00202022 0)
(0.996256 0.00374716 0)
(0.999693 -0.00191796 0)
(0.999645 0.000681518 0)
(1.00021 -0.00437514 0)
(0.994943 -0.00553889 0)
(0.991086 -0.00135877 0)
(0.993203 0.000632559 0)
(0.993255 0.00317319 0)
(0.994803 0.00356715 0)
(0.995961 0.00335739 0)
(0.997263 0.00545231 0)
(0.998206 0.00195901 0)
(0.99688 0.00355935 0)
(0.997001 0.00365963 0)
(0.997062 0.00349884 0)
(0.995562 0.00585385 0)
(1.00123 -0.00619254 0)
(0.992971 0.0024439 0)
(0.998229 0.00161985 0)
(0.998322 -0.00202524 0)
(0.996275 0.00367998 0)
(0.999649 -0.00192226 0)
(0.999604 0.000623487 0)
(1.00007 -0.00418542 0)
(0.99506 -0.0053755 0)
(0.991307 -0.00119895 0)
(0.993394 0.000476042 0)
(0.993393 0.00312796 0)
(0.994847 0.00345598 0)
(0.996086 0.00328321 0)
(0.997226 0.00527881 0)
(0.998157 0.00216236 0)
(0.997024 0.00347681 0)
(0.997047 0.00395952 0)
(0.997253 0.00363057 0)
(0.995889 0.00577825 0)
(1.00121 -0.00599815 0)
(0.993135 0.00227291 0)
(0.998175 0.00168104 0)
(0.998394 -0.00203659 0)
(0.996294 0.00361378 0)
(0.999606 -0.00191943 0)
(0.999567 0.000554945 0)
(0.999925 -0.00397647 0)
(0.995184 -0.00522965 0)
(0.991528 -0.00103214 0)
(0.993585 0.000326092 0)
(0.993537 0.00306336 0)
(0.994884 0.00337384 0)
(0.996208 0.00317644 0)
(0.997194 0.00512585 0)
(0.998103 0.0023645 0)
(0.997177 0.00338643 0)
(0.997105 0.00422125 0)
(0.997423 0.00379886 0)
(0.996224 0.00565893 0)
(1.00118 -0.00579587 0)
(0.993306 0.00209024 0)
(0.998121 0.00175164 0)
(0.998467 -0.00205284 0)
(0.996314 0.00354634 0)
(0.999562 -0.00190652 0)
(0.999537 0.000471472 0)
(0.999786 -0.00374598 0)
(0.995316 -0.00510141 0)
(0.991749 -0.000859447 0)
(0.993775 0.00019062 0)
(0.993689 0.00296615 0)
(0.994917 0.0033322 0)
(0.99633 0.00304578 0)
(0.997177 0.0049862 0)
(0.998044 0.00257659 0)
(0.997337 0.00329835 0)
(0.997183 0.00442728 0)
(0.997569 0.00400247 0)
(0.99656 0.0055052 0)
(1.00116 -0.0055859 0)
(0.993485 0.00189678 0)
(0.998069 0.00182933 0)
(0.998543 -0.00207135 0)
(0.996336 0.00347658 0)
(0.999518 -0.00188261 0)
(0.999514 0.00037254 0)
(0.999649 -0.00349788 0)
(0.995455 -0.00498417 0)
(0.991971 -0.000685868 0)
(0.993962 7.99733e-05 0)
(0.993854 0.00283201 0)
(0.994948 0.00332587 0)
(0.996451 0.0029084 0)
(0.997179 0.00484268 0)
(0.997982 0.00280504 0)
(0.997502 0.00322775 0)
(0.997284 0.00456746 0)
(0.997694 0.00423869 0)
(0.996888 0.00534925 0)
(1.00113 -0.00536857 0)
(0.993671 0.00169349 0)
(0.99802 0.00191322 0)
(0.99862 -0.00209252 0)
(0.996361 0.00340332 0)
(0.999471 -0.00184368 0)
(0.999498 0.000257058 0)
(0.999514 -0.00323111 0)
(0.995599 -0.00487478 0)
(0.992195 -0.000525169 0)
(0.994145 7.96314e-07 0)
(0.994033 0.00266169 0)
(0.994981 0.00334321 0)
(0.996571 0.00277643 0)
(0.997205 0.00468564 0)
(0.99792 0.00304711 0)
(0.997667 0.0031797 0)
(0.997413 0.00463113 0)
(0.9978 0.00448877 0)
(0.997197 0.00522726 0)
(1.0011 -0.00514417 0)
(0.993864 0.00148062 0)
(0.997973 0.00200257 0)
(0.9987 -0.00211426 0)
(0.99639 0.00332258 0)
(0.99942 -0.00178552 0)
(0.999491 0.000121222 0)
(0.999381 -0.0029482 0)
(0.995748 -0.00476854 0)
(0.992424 -0.000383597 0)
(0.994322 -3.90313e-05 0)
(0.994228 0.00245729 0)
(0.995019 0.00337631 0)
(0.996686 0.00266422 0)
(0.997259 0.00450581 0)
(0.997862 0.00329911 0)
(0.997823 0.00316355 0)
(0.997571 0.00462251 0)
(0.997899 0.00472277 0)
(0.997477 0.00515594 0)
(1.00108 -0.00491363 0)
(0.994065 0.00126015 0)
(0.99793 0.0020936 0)
(0.998781 -0.00213006 0)
(0.996424 0.00322967 0)
(0.999366 -0.00170748 0)
(0.999492 -3.55615e-05 0)
(0.999251 -0.00265566 0)
(0.9959 -0.00466153 0)
(0.992659 -0.000272867 0)
(0.994491 -3.61921e-05 0)
(0.994438 0.00222936 0)
(0.995066 0.0034119 0)
(0.996795 0.00258411 0)
(0.997343 0.00430392 0)
(0.997814 0.00354167 0)
(0.997965 0.00319168 0)
(0.997756 0.0045624 0)
(0.997999 0.00492081 0)
(0.99772 0.00515246 0)
(1.00105 -0.00467722 0)
(0.994274 0.00103303 0)
(0.997891 0.00218443 0)
(0.998863 -0.00213983 0)
(0.996466 0.0031269 0)
(0.999308 -0.00160626 0)
(0.999503 -0.000209158 0)
(0.999127 -0.00235775 0)
(0.996052 -0.0045452 0)
(0.992902 -0.00019362 0)
(0.994653 5.79683e-06 0)
(0.994662 0.00199023 0)
(0.995126 0.00343863 0)
(0.996894 0.00255754 0)
(0.997456 0.00408149 0)
(0.997783 0.0037567 0)
(0.998088 0.00326792 0)
(0.997961 0.00446193 0)
(0.998113 0.00505356 0)
(0.997924 0.00521433 0)
(1.00102 -0.00443546 0)
(0.99449 0.000801424 0)
(0.997857 0.00226915 0)
(0.998945 -0.00213948 0)
(0.996517 0.00301023 0)
(0.999245 -0.00147922 0)
(0.999522 -0.000396109 0)
(0.999008 -0.00206525 0)
(0.996203 -0.00440552 0)
(0.993156 -0.000144766 0)
(0.994807 8.79552e-05 0)
(0.994898 0.00174955 0)
(0.995205 0.00344529 0)
(0.99698 0.00257991 0)
(0.997592 0.00385274 0)
(0.997777 0.00392471 0)
(0.99819 0.00338296 0)
(0.998178 0.0043441 0)
(0.998252 0.00510654 0)
(0.998096 0.00531062 0)
(1.00099 -0.00419044 0)
(0.994714 0.000568485 0)
(0.997829 0.00234359 0)
(0.999027 -0.00211847 0)
(0.996577 0.00287247 0)
(0.999178 -0.00132572 0)
(0.99955 -0.000591948 0)
(0.998899 -0.00178235 0)
(0.99635 -0.00424215 0)
(0.993421 -0.000142199 0)
(0.994954 0.000201509 0)
(0.995141 0.00151992 0)
(0.995307 0.00342375 0)
(0.997056 0.00264604 0)
(0.997747 0.00363029 0)
(0.9978 0.00402984 0)
(0.998273 0.00352911 0)
(0.998395 0.00423735 0)
(0.99842 0.00508516 0)
(0.998248 0.00540485 0)
(1.00096 -0.00394257 0)
(0.994946 0.000336399 0)
(0.997807 0.00240569 0)
(0.999107 -0.00207594 0)
(0.996647 0.00271756 0)
(0.999107 -0.00115229 0)
(0.999587 -0.000790288 0)
(0.9988 -0.00151831 0)
(0.996491 -0.0040487 0)
(0.993698 -0.000175738 0)
(0.995096 0.000337462 0)
(0.995388 0.00131593 0)
(0.995436 0.00336781 0)
(0.997122 0.0027498 0)
(0.99791 0.00342708 0)
(0.997859 0.00407312 0)
(0.998344 0.00369173 0)
(0.998602 0.00415825 0)
(0.998618 0.00500416 0)
(0.998397 0.00546456 0)
(1.00093 -0.00369274 0)
(0.995186 0.000108141 0)
(0.997793 0.00244928 0)
(0.999185 -0.00200974 0)
(0.996728 0.00254514 0)
(0.999033 -0.000964812 0)
(0.999631 -0.000979899 0)
(0.998716 -0.0012848 0)
(0.996625 -0.00381823 0)
(0.993987 -0.00023646 0)
(0.995236 0.000488567 0)
(0.995635 0.00115163 0)
(0.995593 0.00327554 0)
(0.997181 0.00286873 0)
(0.998074 0.00326326 0)
(0.997952 0.0040517 0)
(0.99841 0.00384061 0)
(0.998792 0.00411611 0)
(0.998836 0.00488621 0)
(0.99856 0.00546479 0)
(1.0009 -0.0034439 0)
(0.995432 -0.000109197 0)
(0.99779 0.00246757 0)
(0.99926 -0.00191582 0)
(0.99682 0.00235917 0)
(0.998955 -0.000764957 0)
(0.999681 -0.00115472 0)
(0.998649 -0.00108356 0)
(0.99675 -0.00355257 0)
(0.994287 -0.000319269 0)
(0.995379 0.000641896 0)
(0.995877 0.00103968 0)
(0.995779 0.0031508 0)
(0.997238 0.00299323 0)
(0.998232 0.0031383 0)
(0.998078 0.00397818 0)
(0.998481 0.00396108 0)
(0.99896 0.00411258 0)
(0.999065 0.00475742 0)
(0.998746 0.00539625 0)
(1.00087 -0.00319627 0)
(0.995683 -0.000319087 0)
(0.997797 0.00245728 0)
(0.999331 -0.00179521 0)
(0.996922 0.0021595 0)
(0.998875 -0.000559504 0)
(0.999734 -0.00130506 0)
(0.998602 -0.000923152 0)
(0.996865 -0.00325662 0)
(0.994598 -0.000414378 0)
(0.995529 0.000782443 0)
(0.99611 0.000983434 0)
(0.99599 0.00299879 0)
(0.9973 0.00310118 0)
(0.998378 0.0030577 0)
(0.998231 0.00387508 0)
(0.998565 0.00404142 0)
(0.999108 0.00413082 0)
(0.999289 0.00464707 0)
(0.998954 0.00527726 0)
(1.00084 -0.00295208 0)
(0.995939 -0.000517305 0)
(0.997817 0.00241902 0)
(0.9994 -0.00165166 0)
(0.997034 0.00195081 0)
(0.998795 -0.000356493 0)
(0.999789 -0.00142251 0)
(0.998576 -0.000804915 0)
(0.996971 -0.00293613 0)
(0.994915 -0.000506979 0)
(0.995692 0.000896306 0)
(0.996335 0.000980789 0)
(0.996224 0.00283138 0)
(0.997372 0.00317951 0)
(0.99851 0.00301846 0)
(0.998403 0.00375157 0)
(0.998668 0.00408122 0)
(0.999242 0.00415006 0)
(0.999502 0.00456233 0)
(0.999177 0.00514312 0)
(1.00081 -0.00271319 0)
(0.996198 -0.000697415 0)
(0.99785 0.00235615 0)
(0.999464 -0.00149232 0)
(0.997156 0.00174424 0)
(0.998715 -0.000161391 0)
(0.999843 -0.00150041 0)
(0.998573 -0.000724323 0)
(0.997069 -0.00259571 0)
(0.995234 -0.000586406 0)
(0.995871 0.000975087 0)
(0.996549 0.0010191 0)
(0.996474 0.00266155 0)
(0.99746 0.00322613 0)
(0.998629 0.00301283 0)
(0.998588 0.00361929 0)
(0.998791 0.00408452 0)
(0.999369 0.004164 0)
(0.999702 0.00449034 0)
(0.999404 0.00501905 0)
(1.00078 -0.00248086 0)
(0.996458 -0.000857384 0)
(0.997897 0.00226752 0)
(0.999525 -0.00132198 0)
(0.997286 0.00154018 0)
(0.998639 1.62922e-05 0)
(0.999894 -0.00153629 0)
(0.998593 -0.000676822 0)
(0.997161 -0.00224774 0)
(0.995551 -0.000635803 0)
(0.996069 0.00102348 0)
(0.996756 0.00108153 0)
(0.996737 0.00249737 0)
(0.997569 0.00323182 0)
(0.998735 0.0030355 0)
(0.99878 0.00349796 0)
(0.998937 0.00404431 0)
(0.999492 0.0041716 0)
(0.999892 0.00442463 0)
(0.999631 0.00490325 0)
(1.00075 -0.00225757 0)
(0.996717 -0.000991435 0)
(0.997959 0.00215387 0)
(0.999583 -0.00114564 0)
(0.997423 0.00134509 0)
(0.998568 0.000179833 0)
(0.999941 -0.00153314 0)
(0.998638 -0.000652396 0)
(0.997252 -0.00190233 0)
(0.995861 -0.000644648 0)
(0.996285 0.00104365 0)
(0.996956 0.00116264 0)
(0.997006 0.00234791 0)
(0.997703 0.00319283 0)
(0.998835 0.00306824 0)
(0.99897 0.00339871 0)
(0.999104 0.00396435 0)
(0.99962 0.00416629 0)
(1.00007 0.00436905 0)
(0.999855 0.00478829 0)
(1.00072 -0.00204398 0)
(0.996974 -0.00109717 0)
(0.998036 0.00201835 0)
(0.999638 -0.000972105 0)
(0.997566 0.00116485 0)
(0.998503 0.000327292 0)
(0.999982 -0.00149259 0)
(0.998707 -0.000646051 0)
(0.997344 -0.00156952 0)
(0.996161 -0.000619344 0)
(0.996518 0.0010417 0)
(0.997153 0.00125044 0)
(0.997275 0.00221432 0)
(0.997861 0.00311733 0)
(0.998935 0.00310325 0)
(0.999152 0.00333336 0)
(0.999288 0.00386441 0)
(0.999759 0.00412852 0)
(1.00024 0.0043114 0)
(1.00007 0.0046744 0)
(1.00068 -0.00184297 0)
(0.997226 -0.0011677 0)
(0.998126 0.00185669 0)
(0.999692 -0.000804896 0)
(0.997713 0.000999831 0)
(0.998445 0.000449929 0)
(1.00002 -0.00141757 0)
(0.998798 -0.000645307 0)
(0.997442 -0.00125908 0)
(0.996448 -0.000561848 0)
(0.996766 0.00102748 0)
(0.997346 0.0013384 0)
(0.997541 0.00210521 0)
(0.998046 0.00301045 0)
(0.999044 0.00312154 0)
(0.999323 0.00329428 0)
(0.999478 0.00376769 0)
(0.999909 0.00406002 0)
(1.00041 0.00424177 0)
(1.00028 0.0045657 0)
(1.00065 -0.00165653 0)
(0.997471 -0.00119993 0)
(0.998228 0.00167268 0)
(0.999745 -0.000650003 0)
(0.997863 0.000854235 0)
(0.998397 0.000548698 0)
(1.00004 -0.00131552 0)
(0.998908 -0.000639583 0)
(0.997547 -0.000970995 0)
(0.996721 -0.000479713 0)
(0.997027 0.000999666 0)
(0.99754 0.00142606 0)
(0.997796 0.00203667 0)
(0.99825 0.00288061 0)
(0.999168 0.00310866 0)
(0.99949 0.00326651 0)
(0.99967 0.00368615 0)
(1.00007 0.00397607 0)
(1.00058 0.00415058 0)
(1.00049 0.00444967 0)
(1.00062 -0.00148443 0)
(0.997705 -0.00119658 0)
(0.998339 0.00147399 0)
(0.999798 -0.000513358 0)
(0.998014 0.000731769 0)
(0.998357 0.000628942 0)
(1.00006 -0.00119524 0)
(0.999035 -0.000623862 0)
(0.997661 -0.000708296 0)
(0.996979 -0.000374514 0)
(0.997299 0.000960297 0)
(0.997739 0.0015076 0)
(0.998038 0.00200255 0)
(0.998468 0.00273874 0)
(0.999313 0.00306058 0)
(0.999655 0.00324238 0)
(0.999859 0.00361968 0)
(1.00023 0.00389641 0)
(1.00074 0.00404505 0)
(1.0007 0.0043174 0)
(1.00059 -0.00132748 0)
(0.997926 -0.00116033 0)
(0.998457 0.00126638 0)
(0.999854 -0.000399112 0)
(0.998166 0.000631958 0)
(0.998327 0.000693373 0)
(1.00008 -0.00106473 0)
(0.999176 -0.000595573 0)
(0.997786 -0.000466893 0)
(0.99722 -0.000256909 0)
(0.997579 0.000909289 0)
(0.997948 0.0015786 0)
(0.998263 0.00200647 0)
(0.998688 0.00260677 0)
(0.999479 0.00297415 0)
(0.999829 0.0032058 0)
(1.00005 0.00355718 0)
(1.00038 0.00382874 0)
(1.0009 0.00394599 0)
(1.0009 0.00417193 0)
(1.00056 -0.00118697 0)
(0.998133 -0.00109742 0)
(0.998577 0.00106216 0)
(0.999911 -0.000315068 0)
(0.998317 0.000556864 0)
(0.998304 0.000740478 0)
(1.00008 -0.000935158 0)
(0.99933 -0.000558793 0)
(0.997921 -0.000238047 0)
(0.997441 -0.000125324 0)
(0.997865 0.000851678 0)
(0.998172 0.00162192 0)
(0.998474 0.00204269 0)
(0.998901 0.00250608 0)
(0.999661 0.00286314 0)
(1.00001 0.00315038 0)
(1.00024 0.00349515 0)
(1.00054 0.00376839 0)
(1.00105 0.00386623 0)
(1.00111 0.00402165 0)
(1.00053 -0.00105986 0)
(0.998323 -0.00101848 0)
(0.998695 0.000873711 0)
(0.999972 -0.000263297 0)
(0.998469 0.000500556 0)
(0.998287 0.000786408 0)
(1.00009 -0.000810863 0)
(0.999495 -0.000521502 0)
(0.998066 -1.7339e-05 0)
(0.99764 2.41855e-05 0)
(0.998149 0.000787094 0)
(0.998417 0.00162873 0)
(0.998678 0.0020952 0)
(0.999098 0.00244496 0)
(0.999853 0.00273809 0)
(1.00022 0.00305854 0)
(1.00044 0.00342505 0)
(1.0007 0.00370536 0)
(1.00118 0.00380572 0)
(1.00129 0.0038936 0)
(1.0005 -0.000946503 0)
(0.998496 -0.000928129 0)
(0.998809 0.000711716 0)
(1.00003 -0.000245808 0)
(0.998621 0.000458483 0)
(0.998276 0.000832755 0)
(1.00008 -0.000686377 0)
(0.999671 -0.000487295 0)
(0.998224 0.000193743 0)
(0.997813 0.000201901 0)
(0.998424 0.000723859 0)
(0.998684 0.00158866 0)
(0.998882 0.00214703 0)
(0.999273 0.00242986 0)
(1.00004 0.00263118 0)
(1.00043 0.00293562 0)
(1.00066 0.00333314 0)
(1.00086 0.00362947 0)
(1.00131 0.00374324 0)
(1.00144 0.00379803 0)
(1.00047 -0.000844313 0)
(0.998654 -0.000835109 0)
(0.998913 0.000582845 0)
(1.0001 -0.000259374 0)
(0.998775 0.000421401 0)
(0.998268 0.000892916 0)
(1.00006 -0.000560264 0)
(0.999854 -0.00047243 0)
(0.9984 0.000384244 0)
(0.997958 0.000423787 0)
(0.998675 0.000689432 0)
(0.998973 0.00149499 0)
(0.999101 0.0021734 0)
(0.999431 0.00244791 0)
(1.0002 0.00255668 0)
(1.00065 0.00280356 0)
(1.00089 0.00321084 0)
(1.00104 0.00354445 0)
(1.00143 0.00367442 0)
(1.00158 0.00372069 0)
(1.00044 -0.000750946 0)
(0.998798 -0.000746003 0)
(0.999005 0.000487605 0)
(1.00016 -0.000291281 0)
(0.998936 0.000372928 0)
(0.998265 0.000969164 0)
(1.00002 -0.000421334 0)
(1.00005 -0.00047754 0)
(0.998601 0.000535931 0)
(0.99808 0.000670536 0)
(0.998887 0.000706599 0)
(0.999274 0.00137129 0)
(0.999346 0.00215121 0)
(0.999579 0.00248298 0)
(1.00035 0.00252209 0)
(1.00086 0.00268465 0)
(1.00114 0.0030599 0)
(1.00124 0.00343487 0)
(1.00156 0.00359783 0)
(1.00169 0.00364158 0)
(1.00041 -0.000665488 0)
(0.998928 -0.000664208 0)
(0.999085 0.000422935 0)
(1.00022 -0.000329341 0)
(0.999105 0.000305938 0)
(0.99827 0.00104817 0)
(0.999967 -0.000255303 0)
(1.00023 -0.000498926 0)
(0.998832 0.000633377 0)
(0.998189 0.000931464 0)
(0.999051 0.000788879 0)
(0.999568 0.00124904 0)
(0.999622 0.00206267 0)
(0.999735 0.0025083 0)
(1.00046 0.0025296 0)
(1.00104 0.00259499 0)
(1.00139 0.00290246 0)
(1.00146 0.00329234 0)
(1.00171 0.00350787 0)
(1.0018 0.00355952 0)
(1.00038 -0.000584433 0)
(0.999047 -0.000595221 0)
(0.999152 0.000387521 0)
(1.00026 -0.000361572 0)
(0.999283 0.000213023 0)
(0.998289 0.00112267 0)
(0.999886 -5.58987e-05 0)
(1.00041 -0.000524121 0)
(0.9991 0.000652325 0)
(0.998298 0.00118502 0)
(0.99916 0.000943995 0)
(0.999834 0.00116249 0)
(0.999925 0.00192362 0)
(0.999915 0.0024919 0)
(1.00055 0.00255617 0)
(1.00119 0.0025412 0)
(1.00163 0.00275976 0)
(1.00171 0.00312635 0)
(1.00187 0.00339507 0)
(1.00191 0.00348014 0)
(1.00035 -0.000507455 0)
(0.999156 -0.000538674 0)
(0.999207 0.00037054 0)
(1.0003 -0.000373577 0)
(0.999468 0.000100865 0)
(0.99833 0.00116883 0)
(0.999781 0.000182794 0)
(1.00056 -0.000518582 0)
(0.999403 0.000583551 0)
(0.998431 0.00139432 0)
(0.999222 0.00115338 0)
(1.00005 0.00113122 0)
(1.00024 0.00176737 0)
(1.00013 0.00242123 0)
(1.00065 0.00257838 0)
(1.0013 0.00252644 0)
(1.00183 0.00264745 0)
(1.00195 0.00295261 0)
(1.00206 0.00324536 0)
(1.00202 0.00338759 0)
(1.00032 -0.000432593 0)
(0.999257 -0.000496422 0)
(0.999253 0.000368345 0)
(1.00031 -0.000363886 0)
(0.999656 -1.387e-05 0)
(0.9984 0.00117536 0)
(0.99966 0.000437712 0)
(1.00067 -0.000449682 0)
(0.999733 0.000456357 0)
(0.998605 0.0015273 0)
(0.999248 0.00139539 0)
(1.0002 0.00117356 0)
(1.00054 0.00162508 0)
(1.00038 0.00229542 0)
(1.00076 0.00256752 0)
(1.00138 0.00252745 0)
(1.002 0.00257179 0)
(1.00218 0.00280097 0)
(1.00228 0.00307425 0)
(1.00215 0.00327024 0)
(1.00029 -0.000359137 0)
(0.999353 -0.000468614 0)
(0.999292 0.000377488 0)
(1.00031 -0.000329472 0)
(0.999844 -0.000134196 0)
(0.998504 0.00114168 0)
(0.999536 0.000693024 0)
(1.00071 -0.000299117 0)
(1.00007 0.00031124 0)
(0.998837 0.00153936 0)
(0.999264 0.0016356 0)
(1.00029 0.00129863 0)
(1.0008 0.00152726 0)
(1.00065 0.00214281 0)
(1.00089 0.00251351 0)
(1.00146 0.00252059 0)
(1.00213 0.00251639 0)
(1.00238 0.00267785 0)
(1.00249 0.00290313 0)
(1.00231 0.00311895 0)
(1.00027 -0.000288132 0)
(0.999442 -0.000450223 0)
(0.999331 0.000385514 0)
(1.00029 -0.000258737 0)
(1.00002 -0.000251814 0)
(0.998647 0.00105876 0)
(0.999425 0.000924356 0)
(1.0007 -8.57093e-05 0)
(1.00038 0.00020083 0)
(0.999127 0.0014383 0)
(0.999306 0.00181634 0)
(1.00031 0.00147335 0)
(1.00101 0.00149 0)
(1.00093 0.00199152 0)
(1.00106 0.00241946 0)
(1.00152 0.00249905 0)
(1.00222 0.0024686 0)
(1.00255 0.00257568 0)
(1.0027 0.00275427 0)
(1.00249 0.00294764 0)
(1.00024 -0.000220075 0)
(0.999528 -0.000437208 0)
(0.999375 0.000387036 0)
(1.00025 -0.000158463 0)
(1.00019 -0.000339736 0)
(0.998827 0.000931879 0)
(0.999343 0.00111119 0)
(1.00064 0.000165455 0)
(1.00064 0.000155981 0)
(0.999459 0.00127409 0)
(0.999396 0.00190354 0)
(1.0003 0.00166185 0)
(1.00115 0.00152728 0)
(1.00119 0.00186729 0)
(1.00126 0.00229566 0)
(1.00161 0.00245285 0)
(1.0023 0.00242018 0)
(1.00269 0.0024756 0)
(1.00287 0.00262485 0)
(1.00268 0.00277939 0)
(1.00021 -0.000156634 0)
(0.999608 -0.000419924 0)
(0.999428 0.000372797 0)
(1.0002 -4.43408e-05 0)
(1.00032 -0.000387031 0)
(0.99904 0.000777814 0)
(0.999302 0.0012427 0)
(1.00054 0.00044159 0)
(1.00083 0.0001901 0)
(0.99981 0.00109818 0)
(0.999551 0.00188174 0)
(1.00029 0.00182186 0)
(1.00122 0.00161774 0)
(1.0014 0.00179776 0)
(1.00147 0.00216854 0)
(1.00171 0.00237983 0)
(1.00236 0.00237343 0)
(1.0028 0.00237661 0)
(1.00303 0.00249831 0)
(1.00285 0.00262975 0)
(1.00019 -0.000101435 0)
(0.999682 -0.000391353 0)
(0.99949 0.000341308 0)
(1.00014 7.76629e-05 0)
(1.00043 -0.000379705 0)
(0.999276 0.000609433 0)
(0.999314 0.00130115 0)
(1.00043 0.000713473 0)
(1.00096 0.000302991 0)
(1.00015 0.000949824 0)
(0.999765 0.00178119 0)
(1.0003 0.0019138 0)
(1.00125 0.00171751 0)
(1.00156 0.00177679 0)
(1.00167 0.00206358 0)
(1.00183 0.00228825 0)
(1.0024 0.00232488 0)
(1.00288 0.00229481 0)
(1.00316 0.00236665 0)
(1.00301 0.00249345 0)
(1.00017 -5.44221e-05 0)
(0.999747 -0.000349684 0)
(0.999563 0.000298905 0)
(1.00008 0.000195628 0)
(1.0005 -0.000305138 0)
(0.999519 0.000448943 0)
(0.999383 0.00128438 0)
(1.00033 0.000941863 0)
(1.00102 0.00046953 0)
(1.00044 0.000853181 0)
(1.00002 0.00164485 0)
(1.00035 0.00193219 0)
(1.00126 0.00180042 0)
(1.00168 0.0017815 0)
(1.00185 0.00198608 0)
(1.00195 0.00219323 0)
(1.00245 0.00225702 0)
(1.00293 0.00222814 0)
(1.00327 0.00223561 0)
(1.00315 0.00234723 0)
(1.00015 -1.55262e-05 0)
(0.999803 -0.000297123 0)
(0.999645 0.000254094 0)
(1.00004 0.000293024 0)
(1.00054 -0.000186834 0)
(0.999749 0.000328846 0)
(0.999505 0.00120789 0)
(1.00025 0.00111182 0)
(1.00102 0.000657497 0)
(1.00069 0.000829288 0)
(1.00029 0.00149497 0)
(1.00046 0.00188589 0)
(1.00127 0.00184759 0)
(1.00176 0.00179236 0)
(1.00199 0.00192473 0)
(1.00208 0.00210939 0)
(1.00251 0.00217757 0)
(1.00295 0.00216718 0)
(1.00335 0.00213291 0)
(1.00328 0.00219407 0)
(1.00013 1.43695e-05 0)
(0.999849 -0.000234297 0)
(0.999731 0.000213483 0)
(1.00001 0.0003638 0)
(1.00055 -5.41999e-05 0)
(0.999956 0.000266953 0)
(0.999666 0.00109779 0)
(1.00021 0.00121429 0)
(1.001 0.000840881 0)
(1.00087 0.000871188 0)
(1.00056 0.00137479 0)