/*--------------------------------*- C++ -*----------------------------------*\
| =========                 |                                                 |
| \\      /  F ield         | OpenFOAM: The Open Source CFD Toolbox           |
|  \\    /   O peration     | Version:  2106                                  |
|   \\  /    A nd           | Website:  www.openfoam.com                      |
|    \\/     M anipulation  |                                                 |
\*---------------------------------------------------------------------------*/
FoamFile
{
    version     2.0;
    format      ascii;
    arch        "LSB;label=32;scalar=64";
    class       surfaceScalarField;
    location    "0.515";
    object      phi;
}
// * * * * * * * * * * * * * * * * * * * * * * * * * * * * * * * * * * * * * //

dimensions      [0 3 -1 0 0 0 0];

oriented        oriented;

internalField   nonuniform List<scalar> 
19000
(
1.17675e-06
-4.93653e-07
1.1649e-06
-2.00483e-07
1.17521e-06
1.14771e-07
1.17601e-06
7.44578e-08
1.1782e-06
-2.2835e-08
1.20148e-06
-1.41263e-07
1.20527e-06
3.46938e-07
1.16569e-06
-2.44344e-07
1.19492e-06
6.24514e-07
1.16528e-06
-1.28184e-08
1.17823e-06
3.00145e-08
1.1705e-06
1.10434e-07
1.17591e-06
-2.59518e-07
1.16975e-06
-2.18888e-07
1.18313e-06
-2.76512e-07
1.18358e-06
-2.33888e-07
1.1929e-06
-2.63588e-07
1.18776e-06
-9.31706e-08
1.18769e-06
-6.13669e-08
2.34271e-08
1.15639e-06
1.23374e-06
-5.03127e-07
1.22251e-06
-1.89259e-07
1.23232e-06
1.04966e-07
1.2362e-06
7.05741e-08
1.23681e-06
-2.3449e-08
1.26052e-06
-1.64973e-07
1.26042e-06
3.47045e-07
1.2254e-06
-2.09324e-07
1.24534e-06
6.04574e-07
1.22634e-06
6.17849e-09
1.22881e-06
2.754e-08
1.2342e-06
1.05049e-07
1.22941e-06
-2.54728e-07
1.23262e-06
-2.22099e-07
1.23306e-06
-2.76949e-07
1.24807e-06
-2.48902e-07
1.24066e-06
-2.56183e-07
1.25677e-06
-1.09275e-07
1.23237e-06
-3.69699e-08
1.61186e-08
1.23968e-06
1.29016e-06
-5.105e-07
1.28585e-06
-1.84951e-07
1.2936e-06
9.7214e-08
1.30098e-06
6.31923e-08
1.29955e-06
-2.20199e-08
1.32259e-06
-1.8801e-07
1.3195e-06
3.50135e-07
1.2918e-06
-1.81627e-07
1.30309e-06
5.93289e-07
1.29473e-06
1.45353e-08
1.28648e-06
3.57873e-08
1.29748e-06
9.40543e-08
1.28577e-06
-2.43016e-07
1.29115e-06
-2.27476e-07
1.28651e-06
-2.72317e-07
1.30222e-06
-2.64609e-07
1.29521e-06
-2.49171e-07
1.30682e-06
-1.20887e-07
1.29449e-06
-2.46385e-08
2.34319e-08
1.28718e-06
1.34646e-06
-5.12861e-07
1.35108e-06
-1.89567e-07
1.35757e-06
9.07226e-08
1.36721e-06
5.35585e-08
1.36474e-06
-1.95543e-08
1.38576e-06
-2.0903e-07
1.38182e-06
3.54076e-07
1.3628e-06
-1.62605e-07
1.36972e-06
5.86361e-07
1.36539e-06
1.88664e-08
1.35277e-06
4.84121e-08
1.35988e-06
8.69402e-08
1.34668e-06
-2.29817e-07
1.34805e-06
-2.28847e-07
1.34412e-06
-2.68387e-07
1.3549e-06
-2.75383e-07
1.35235e-06
-2.46626e-07
1.36e-06
-1.2853e-07
1.35528e-06
-1.99187e-08
3.15774e-08
1.34713e-06
1.40422e-06
-5.08728e-07
1.41618e-06
-2.01529e-07
1.42308e-06
8.38237e-08
1.43254e-06
4.40995e-08
1.43088e-06
-1.78956e-08
1.44845e-06
-2.26602e-07
1.44578e-06
3.56747e-07
1.43445e-06
-1.51271e-07
1.44121e-06
5.79597e-07
1.43525e-06
2.48259e-08
1.42297e-06
6.06998e-08
1.42393e-06
8.59775e-08
1.41046e-06
-2.16344e-07
1.40853e-06
-2.2692e-07
1.40442e-06
-2.64276e-07
1.41146e-06
-2.82429e-07
1.41018e-06
-2.45339e-07
1.41726e-06
-1.35613e-07
1.41605e-06
-1.87052e-08
3.73901e-08
1.41023e-06
1.46574e-06
-4.98788e-07
1.4812e-06
-2.16992e-07
1.4897e-06
7.53186e-08
1.49715e-06
3.66524e-08
1.49738e-06
-1.81232e-08
1.51066e-06
-2.39884e-07
1.50995e-06
3.57458e-07
1.50427e-06
-1.45588e-07
1.51268e-06
5.71183e-07
1.50376e-06
3.37476e-08
1.49305e-06
7.14119e-08
1.49029e-06
8.87392e-08
1.47654e-06
-2.02594e-07
1.47337e-06
-2.23756e-07
1.46811e-06
-2.59017e-07
1.47202e-06
-2.86334e-07
1.47034e-06
-2.43661e-07
1.47651e-06
-1.41783e-07
1.47812e-06
-2.03202e-08
4.15623e-08
1.47395e-06
1.5327e-06
-4.85272e-07
1.5477e-06
-2.31992e-07
1.55771e-06
6.53138e-08
1.56278e-06
3.15801e-08
1.56468e-06
-2.00283e-08
1.57353e-06
-2.48735e-07
1.5743e-06
3.56693e-07
1.57202e-06
-1.43308e-07
1.58212e-06
5.6108e-07
1.57176e-06
4.41139e-08
1.56269e-06
8.04766e-08
1.55909e-06
9.23416e-08
1.54581e-06
-1.89318e-07
1.54243e-06
-2.20371e-07
1.53626e-06
-2.5285e-07
1.53707e-06
-2.87146e-07
1.53447e-06
-2.41058e-07
1.53855e-06
-1.45866e-07
1.54199e-06
-2.37566e-08
4.47565e-08
1.53879e-06
1.60551e-06
-4.70653e-07
1.61748e-06
-2.4396e-07
1.62785e-06
5.49397e-08
1.63126e-06
2.81756e-08
1.63393e-06
-2.27007e-08
1.63869e-06
-2.53497e-07
1.64022e-06
3.55158e-07
1.6394e-06
-1.42488e-07
1.65071e-06
5.49775e-07
1.64092e-06
5.39048e-08
1.63375e-06
8.7648e-08
1.63104e-06
9.50502e-08
1.61916e-06
-1.77436e-07
1.61582e-06
-2.17035e-07
1.60927e-06
-2.46303e-07
1.60728e-06
-2.85151e-07
1.6036e-06
-2.37381e-07
1.6049e-06
-1.47162e-07
1.60889e-06
-2.77475e-08
4.75595e-08
1.60609e-06
1.68359e-06
-4.56668e-07
1.69169e-06
-2.52065e-07
1.70115e-06
4.54809e-08
1.7038e-06
2.55321e-08
1.70635e-06
-2.52498e-08
1.70765e-06
-2.54805e-07
1.7096e-06
3.53208e-07
1.70892e-06
-1.41806e-07
1.72106e-06
5.37637e-07
1.71309e-06
6.18714e-08
1.70814e-06
9.26048e-08
1.70695e-06
9.62402e-08
1.6969e-06
-1.67386e-07
1.69354e-06
-2.13676e-07
1.68704e-06
-2.398e-07
1.68268e-06
-2.80793e-07
1.67809e-06
-2.3279e-07
1.67649e-06
-1.45566e-07
1.68008e-06
-3.1332e-08
5.03733e-08
1.67726e-06
1.76614e-06
-4.44089e-07
1.77079e-06
-2.56712e-07
1.77852e-06
3.77468e-08
1.78099e-06
2.3065e-08
1.78284e-06
-2.70975e-08
1.78151e-06
-2.53478e-07
1.78393e-06
3.50793e-07
1.78271e-06
-1.40589e-07
1.79552e-06
5.24827e-07
1.78966e-06
6.77345e-08
1.78698e-06
9.52763e-08
1.78724e-06
9.59863e-08
1.77899e-06
-1.5914e-07
1.77537e-06
-2.10057e-07
1.7692e-06
-2.33627e-07
1.76291e-06
-2.74501e-07
1.7577e-06
-2.27579e-07
1.75357e-06
-1.41435e-07
1.75616e-06
-3.39232e-08
5.32664e-08
1.75326e-06
1.85265e-06
-4.32993e-07
1.85475e-06
-2.58806e-07
1.86052e-06
3.1972e-08
1.86305e-06
2.05323e-08
1.86391e-06
-2.79525e-08
1.8608e-06
-2.50367e-07
1.86394e-06
3.47654e-07
1.86194e-06
-1.3859e-07
1.87535e-06
5.11412e-07
1.87124e-06
7.18506e-08
1.87063e-06
9.58787e-08
1.87193e-06
9.46855e-08
1.86527e-06
-1.52473e-07
1.86111e-06
-2.05899e-07
1.85543e-06
-2.27949e-07
1.84759e-06
-2.6666e-07
1.84199e-06
-2.21983e-07
1.83593e-06
-1.35368e-07
1.83717e-06
-3.51676e-08
5.60214e-08
1.83442e-06
1.94297e-06
-4.23123e-07
1.9434e-06
-2.59233e-07
1.94734e-06
2.80316e-08
1.95003e-06
1.78439e-08
1.9498e-06
-2.77272e-08
1.9456e-06
-2.46167e-07
1.94973e-06
3.43522e-07
1.94689e-06
-1.35751e-07
1.96084e-06
4.97465e-07
1.9579e-06
7.47971e-08
1.95901e-06
9.47641e-08
1.96089e-06
9.28007e-08
1.9556e-06
-1.4718e-07
1.95068e-06
-2.00979e-07
1.94555e-06
-2.22822e-07
1.93652e-06
-2.57628e-07
1.93063e-06
-2.16085e-07
1.92328e-06
-1.28025e-07
1.92296e-06
-3.4845e-08
5.83133e-08
1.92067e-06
2.03718e-06
-4.14116e-07
2.03662e-06
-2.58668e-07
2.03897e-06
2.5678e-08
2.04189e-06
1.49244e-08
2.04065e-06
-2.64897e-08
2.0358e-06
-2.4132e-07
2.04108e-06
3.38245e-07
2.0374e-06
-1.32071e-07
2.05179e-06
4.8308e-07
2.04948e-06
7.71061e-08
2.05197e-06
9.22678e-08
2.05404e-06
9.07373e-08
2.04999e-06
-1.43137e-07
2.0442e-06
-1.95181e-07
2.03957e-06
-2.18199e-07
2.02971e-06
-2.47771e-07
2.02344e-06
-2.09808e-07
2.01547e-06
-1.20054e-07
2.01349e-06
-3.28701e-08
5.99099e-08
2.01189e-06
2.13548e-06
-4.05599e-07
2.1344e-06
-2.57584e-07
2.13541e-06
2.4669e-08
2.13864e-06
1.1691e-08
2.13657e-06
-2.44171e-08
2.13129e-06
-2.36041e-07
2.1377e-06
3.31839e-07
2.13321e-06
-1.27583e-07
2.14796e-06
4.68327e-07
2.14589e-06
7.91819e-08
2.14952e-06
8.86302e-08
2.15145e-06
8.88168e-08
2.14857e-06
-1.40267e-07
2.1419e-06
-1.88506e-07
2.13763e-06
-2.13932e-07
2.12733e-06
-2.37468e-07
2.12048e-06
-2.02954e-07
2.11245e-06
-1.12031e-07
2.10893e-06
-2.93508e-08
6.07764e-08
2.10807e-06
2.23812e-06
-3.97232e-07
2.23688e-06
-2.56338e-07
2.23674e-06
2.48034e-08
2.24035e-06
8.08181e-09
2.23766e-06
-2.17279e-08
2.23204e-06
-2.30424e-07
2.23943e-06
3.24457e-07
2.2342e-06
-1.22353e-07
2.24933e-06
4.53196e-07
2.24719e-06
8.13227e-08
2.25183e-06
8.39882e-08
2.25336e-06
8.72856e-08
2.25156e-06
-1.38466e-07
2.24413e-06
-1.81075e-07
2.23998e-06
-2.09783e-07
2.22962e-06
-2.2711e-07
2.22193e-06
-1.95265e-07
2.21431e-06
-1.04409e-07
2.20957e-06
-2.46102e-08
6.10884e-08
2.20926e-06
2.34537e-06
-3.88726e-07
2.34425e-06
-2.55223e-07
2.34313e-06
2.59225e-08
2.34714e-06
4.07299e-09
2.34403e-06
-1.86146e-08
2.33813e-06
-2.24527e-07
2.34628e-06
3.16311e-07
2.34039e-06
-1.16466e-07
2.35599e-06
4.376e-07
2.35355e-06
8.37596e-08
2.35913e-06
7.84075e-08
2.3601e-06
8.63146e-08
2.3592e-06
-1.37566e-07
2.35124e-06
-1.7311e-07
2.34688e-06
-2.05424e-07
2.33685e-06
-2.17082e-07
2.32807e-06
-1.86487e-07
2.32115e-06
-9.74838e-08
2.31564e-06
-1.91079e-08
6.11365e-08
2.3156e-06
2.45753e-06
-3.79862e-07
2.45678e-06
-2.54476e-07
2.4548e-06
2.7909e-08
2.4592e-06
-3.29135e-10
2.45579e-06
-1.52077e-08
2.44968e-06
-2.18417e-07
2.4584e-06
3.07591e-07
2.45193e-06
-1.09988e-07
2.46812e-06
4.21408e-07
2.4652e-06
8.66733e-08
2.47168e-06
7.1926e-08
2.47201e-06
8.5985e-08
2.47177e-06
-1.37322e-07
2.46357e-06
-1.6491e-07
2.45862e-06
-2.00478e-07
2.44926e-06
-2.07721e-07
2.43929e-06
-1.76509e-07
2.43306e-06
-9.12542e-08
2.42733e-06
-1.33852e-08
6.1218e-08
2.42725e-06
2.57492e-06
-3.7049e-07
2.57472e-06
-2.54278e-07
2.57195e-06
3.06868e-08
2.57672e-06
-5.10517e-09
2.57309e-06
-1.15794e-08
2.56683e-06
-2.1215e-07
2.576e-06
2.98419e-07
2.56896e-06
-1.02953e-07
2.58588e-06
4.04494e-07
2.58236e-06
9.01908e-08
2.58969e-06
6.45928e-08
2.58941e-06
8.62745e-08
2.58951e-06
-1.37424e-07
2.58143e-06
-1.56835e-07
2.57552e-06
-1.94561e-07
2.56705e-06
-1.99259e-07
2.55601e-06
-1.65464e-07
2.55015e-06
-8.53962e-08
2.54478e-06
-8.01671e-09
6.1561e-08
2.54444e-06
2.69786e-06
-3.60521e-07
2.69833e-06
-2.54753e-07
2.69481e-06
3.42154e-08
2.69993e-06
-1.02327e-08
2.69612e-06
-7.76935e-09
2.68973e-06
-2.05759e-07
2.69931e-06
2.88842e-07
2.69171e-06
-9.53517e-08
2.70944e-06
3.86759e-07
2.70525e-06
9.43808e-08
2.71335e-06
5.64913e-08
2.71257e-06
8.70602e-08
2.71266e-06
-1.37518e-07
2.7051e-06
-1.49271e-07
2.69788e-06
-1.87347e-07
2.69038e-06
-1.91756e-07
2.67862e-06
-1.53702e-07
2.67265e-06
-7.94312e-08
2.6681e-06
-3.46043e-09
6.22476e-08
2.66741e-06
2.82665e-06
-3.49905e-07
2.82787e-06
-2.55975e-07
2.82361e-06
3.84754e-08
2.82907e-06
-1.5685e-08
2.82511e-06
-3.81364e-09
2.81859e-06
-1.99236e-07
2.82859e-06
2.78844e-07
2.82038e-06
-8.71476e-08
2.83899e-06
3.68148e-07
2.83413e-06
9.92428e-08
2.84286e-06
4.77648e-08
2.8418e-06
8.81176e-08
2.8415e-06
-1.37213e-07
2.8348e-06
-1.42579e-07
2.8261e-06
-1.78643e-07
2.8194e-06
-1.85059e-07
2.80743e-06
-1.41725e-07
2.80091e-06
-7.2917e-08
2.79739e-06
5.7935e-11
6.31755e-08
2.79646e-06
2.96161e-06
-3.38618e-07
2.96362e-06
-2.57984e-07
2.95864e-06
4.34527e-08
2.96438e-06
-2.14237e-08
2.96033e-06
2.34301e-10
2.95363e-06
-1.92531e-07
2.9641e-06
2.6837e-07
2.95524e-06
-7.82915e-08
2.97474e-06
3.48652e-07
2.96928e-06
1.04705e-07
2.97842e-06
3.86195e-08
2.97739e-06
8.91506e-08
2.97629e-06
-1.36113e-07
2.97075e-06
-1.37038e-07
2.96055e-06
-1.68449e-07
2.95431e-06
-1.78809e-07
2.94267e-06
-1.30093e-07
2.93536e-06
-6.56047e-08
2.9328e-06
2.61985e-09
6.40744e-08
2.9319e-06
3.10304e-06
-3.2665e-07
3.10585e-06
-2.60793e-07
3.10018e-06
4.91242e-08
3.10614e-06
-2.73902e-08
3.10208e-06
4.29412e-09
3.09511e-06
-1.85553e-07
3.10614e-06
2.57335e-07
3.09659e-06
-6.87406e-08
3.11693e-06
3.28315e-07
3.11101e-06
1.1062e-07
3.12029e-06
2.93376e-08
3.11965e-06
8.97966e-08
3.11737e-06
-1.33831e-07
3.11313e-06
-1.32805e-07
3.10164e-06
-1.56955e-07
3.09535e-06
-1.72518e-07
3.08455e-06
-1.19296e-07
3.07644e-06
-5.74921e-08
3.07451e-06
4.54684e-09
6.45883e-08
3.074e-06
3.25126e-06
-3.14001e-07
3.25487e-06
-2.644e-07
3.24854e-06
5.5448e-08
3.25465e-06
-3.34984e-08
3.2507e-06
8.25024e-09
3.24332e-06
-1.78175e-07
3.25502e-06
2.45636e-07
3.24475e-06
-5.84721e-08
3.26582e-06
3.07238e-07
3.25968e-06
1.16769e-07
3.26874e-06
2.02707e-08
3.26888e-06
8.96603e-08
3.26508e-06
-1.30033e-07
3.26215e-06
-1.29873e-07
3.24971e-06
-1.44518e-07
3.24286e-06
-1.65664e-07
3.23324e-06
-1.09677e-07
3.22455e-06
-4.88017e-08
3.2228e-06
6.29672e-09
6.43871e-08
3.223e-06
3.40661e-06
-3.00679e-07
3.41099e-06
-2.68783e-07
3.40408e-06
6.23566e-08
3.41021e-06
-3.96286e-08
3.40652e-06
1.1948e-08
3.39857e-06
-1.70225e-07
3.41104e-06
2.33159e-07
3.40007e-06
-4.74964e-08
3.42171e-06
2.85593e-07
3.41563e-06
1.22853e-07
3.42408e-06
1.18154e-08
3.42537e-06
8.83716e-08
3.41984e-06
-1.24495e-07
3.41801e-06
-1.28052e-07
3.4051e-06
-1.31605e-07
3.39726e-06
-1.57818e-07
3.38894e-06
-1.01366e-07
3.38004e-06
-3.99012e-08
3.37802e-06
8.31851e-09
6.32822e-08
3.37913e-06
3.56943e-06
-2.86701e-07
3.57456e-06
-2.73906e-07
3.56716e-06
6.97514e-08
3.57316e-06
-4.56229e-08
3.56991e-06
1.5192e-08
3.56118e-06
-1.61496e-07
3.57456e-06
2.19782e-07
3.56293e-06
-3.58687e-08
3.58489e-06
2.63637e-07
3.57924e-06
1.28501e-07
3.58667e-06
4.38401e-09
3.58938e-06
8.56605e-08
3.58208e-06
-1.17191e-07
3.58098e-06
-1.26953e-07
3.56812e-06
-1.18748e-07
3.55901e-06
-1.48709e-07
3.55193e-06
-9.42828e-08
3.54324e-06
-3.12132e-08
3.54063e-06
1.09315e-08
6.13163e-08
3.5426e-06
3.7401e-06
-2.72092e-07
3.7459e-06
-2.79711e-07
3.73816e-06
7.74973e-08
3.74381e-06
-5.12801e-08
3.74125e-06
1.77532e-08
3.73151e-06
-1.5175e-07
3.7459e-06
2.0539e-07
3.73374e-06
-2.37065e-08
3.75566e-06
2.4171e-07
3.75087e-06
1.33292e-07
3.75689e-06
-1.6374e-09
3.76112e-06
8.14287e-08
3.75226e-06
-1.08326e-07
3.75136e-06
-1.26058e-07
3.73907e-06
-1.06453e-07
3.72862e-06
-1.38256e-07
3.72251e-06
-8.81722e-08
3.71445e-06
-2.31568e-08
3.7111e-06
1.4281e-08
5.8752e-08
3.71366e-06
3.91899e-06
-2.5689e-07
3.92539e-06
-2.86119e-07
3.91747e-06
8.54182e-08
3.92255e-06
-5.63565e-08
3.92092e-06
1.93877e-08
3.90993e-06
-1.40767e-07
3.92539e-06
1.89931e-07
3.9129e-06
-1.12188e-08
3.93438e-06
2.20232e-07
3.93088e-06
1.36792e-07
3.93519e-06
-5.94215e-09
3.94083e-06
7.57818e-08
3.93081e-06
-9.8302e-08
3.92955e-06
-1.24797e-07
3.91821e-06
-9.51183e-08
3.90653e-06
-1.26574e-07
3.90106e-06
-8.27047e-08
3.89396e-06
-1.60581e-08
3.88991e-06
1.83324e-08
5.59985e-08
3.89267e-06
4.1065e-06
-2.41144e-07
4.11341e-06
-2.93029e-07
4.10554e-06
9.32934e-08
4.10975e-06
-6.05668e-08
4.10928e-06
1.98539e-08
4.09691e-06
-1.28398e-07
4.11337e-06
1.7347e-07
4.10088e-06
1.27491e-09
4.12144e-06
1.99677e-07
4.11961e-06
1.38614e-07
4.12203e-06
-8.3569e-09
4.12878e-06
6.90324e-08
4.1181e-06
-8.7627e-08
4.11599e-06
-1.22685e-07
4.10583e-06
-8.49588e-08
4.09322e-06
-1.13959e-07
4.08803e-06
-7.75171e-08
4.08209e-06
-1.01239e-08
4.07754e-06
2.28865e-08
5.35243e-08
4.08001e-06
4.30307e-06
-2.24916e-07
4.31036e-06
-3.00312e-07
4.3028e-06
1.00851e-07
4.30582e-06
-6.35913e-08
4.30674e-06
1.89416e-08
4.29292e-06
-1.14583e-07
4.31019e-06
1.56202e-07
4.2981e-06
1.33599e-08
4.31725e-06
1.80534e-07
4.3174e-06
1.38465e-07
4.31792e-06
-8.88265e-09
4.32532e-06
6.16392e-08
4.31449e-06
-7.67992e-08
4.31119e-06
-1.19383e-07
4.30226e-06
-7.60288e-08
4.28911e-06
-1.00813e-07
4.28385e-06
-7.2259e-08
4.27919e-06
-5.46075e-09
4.27442e-06
2.76525e-08
5.17455e-08
4.2762e-06
4.50914e-06
-2.08284e-07
4.51664e-06
-3.07809e-07
4.50972e-06
1.07773e-07
4.51121e-06
-6.50873e-08
4.51367e-06
1.64883e-08
4.49848e-06
-9.93941e-08
4.5162e-06
1.38479e-07
4.50503e-06
2.4533e-08
4.52229e-06
1.63268e-07
4.52452e-06
1.36239e-07
4.52339e-06
-7.75026e-09
4.53089e-06
5.4133e-08
4.5203e-06
-6.62026e-08
4.5157e-06
-1.14783e-07
4.50791e-06
-6.82386e-08
4.49463e-06
-8.7534e-08
4.48902e-06
-6.66569e-08
4.48561e-06
-2.04295e-09
4.48099e-06
3.22652e-08
5.0966e-08
4.48177e-06
4.72517e-06
-1.9134e-07
4.73269e-06
-3.15331e-07
4.72677e-06
1.13701e-07
4.7264e-06
-6.4721e-08
4.73047e-06
1.24159e-08
4.71413e-06
-8.30536e-08
4.73179e-06
1.20819e-07
4.72208e-06
3.42447e-08
4.7371e-06
1.48251e-07
4.74127e-06
1.32066e-07
4.73891e-06
-5.3939e-09
4.746e-06
4.70498e-08
4.73591e-06
-5.61187e-08
4.73011e-06
-1.0898e-07
4.72326e-06
-6.13858e-08
4.71019e-06
-7.44645e-08
4.70407e-06
-6.05371e-08
4.70174e-06
2.79962e-10
4.69768e-06
3.63336e-08
5.12955e-08
4.69735e-06
4.95165e-06
-1.74194e-07
4.95898e-06
-3.22658e-07
4.95442e-06
1.18259e-07
4.9519e-06
-6.21985e-08
4.95757e-06
6.7483e-09
4.94044e-06
-6.59266e-08
4.9574e-06
1.03856e-07
4.94969e-06
4.19548e-08
4.96222e-06
1.35718e-07
4.96802e-06
1.2627e-07
4.96494e-06
-2.31662e-09
4.97117e-06
4.08261e-08
4.96174e-06
-4.66948e-08
4.95495e-06
-1.02187e-07
4.94885e-06
-5.52873e-08
4.93623e-06
-6.18405e-08
4.92955e-06
-5.38576e-08
4.92803e-06
1.79853e-09
4.92485e-06
3.95123e-08
5.25954e-08
4.92355e-06
5.18909e-06
-1.56972e-07
5.19597e-06
-3.29534e-07
5.19315e-06
1.21076e-07
5.18827e-06
-5.73136e-08
5.19537e-06
-3.55688e-10
5.17797e-06
-4.85189e-08
5.19352e-06
8.83004e-08
5.18827e-06
4.72049e-08
5.19832e-06
1.25666e-07
5.20522e-06
1.19373e-07
5.2019e-06
1.00224e-09
5.207e-06
3.57234e-08
5.19822e-06
-3.7912e-08
5.19068e-06
-9.46464e-08
5.18523e-06
-4.98345e-08
5.17324e-06
-4.9853e-08
5.16601e-06
-4.66295e-08
5.16495e-06
2.86014e-09
5.16289e-06
4.15764e-08
5.44937e-08
5.16099e-06
5.43803e-06
-1.39815e-07
5.44417e-06
-3.35674e-07
5.44343e-06
1.2182e-07
5.43611e-06
-4.99909e-08
5.44435e-06
-8.59961e-09
5.42726e-06
-3.14309e-08
5.4407e-06
7.48641e-08
5.43822e-06
4.9686e-08
5.44605e-06
1.17834e-07
5.45338e-06
1.12041e-07
5.45031e-06
4.07222e-09
5.4541e-06
3.1937e-08
5.44585e-06
-2.96703e-08
5.43781e-06
-8.66008e-08
5.43294e-06
-4.49653e-08
5.42173e-06
-3.8642e-08
5.41404e-06
-3.89363e-08
5.41309e-06
3.80486e-09
5.41215e-06
4.25177e-08
5.64563e-08
5.41019e-06
5.69902e-06
-1.2288e-07
5.70411e-06
-3.4076e-07
5.7057e-06
1.20234e-07
5.69603e-06
-4.03228e-08
5.705e-06
-1.7568e-08
5.68887e-06
-1.53017e-08
5.69955e-06
6.4177e-08
5.69991e-06
4.93295e-08
5.70602e-06
1.11728e-07
5.71305e-06
1.05005e-07
5.71056e-06
6.57061e-09
5.71318e-06
2.93126e-08
5.70522e-06
-2.17121e-08
5.69686e-06
-7.82414e-08
5.69251e-06
-4.06168e-08
5.68222e-06
-2.83438e-08
5.6742e-06
-3.09169e-08
5.67308e-06
4.91881e-09
5.67308e-06
4.25211e-08
5.79592e-08
5.67158e-06
5.97265e-06
-1.06335e-07
5.97633e-06
-3.44448e-07
5.98042e-06
1.16149e-07
5.96868e-06
-2.85804e-08
5.97786e-06
-2.67495e-08
5.96333e-06
-7.73634e-10
5.97089e-06
5.6617e-08
5.97376e-06
4.64614e-08
5.97881e-06
1.06681e-07
5.98493e-06
9.88817e-08
5.98305e-06
8.44751e-09
5.98491e-06
2.745e-08
5.97709e-06
-1.38902e-08
5.96838e-06
-6.95261e-08
5.96452e-06
-3.67643e-08
5.95526e-06
-1.90794e-08
5.94705e-06
-2.27032e-08
5.94563e-06
6.33575e-09
5.94622e-06
4.19297e-08
5.8649e-08
5.94553e-06
6.25951e-06
-9.03527e-08
6.26143e-06
-3.46367e-07
6.26807e-06
1.09499e-07
6.25471e-06
-1.5215e-08
6.26355e-06
-3.55926e-08
6.25118e-06
1.15955e-08
6.25555e-06
5.22538e-08
6.26023e-06
4.1782e-08
6.26495e-06
1.01957e-07
6.26975e-06
9.4086e-08
6.26829e-06
9.90044e-09
6.26981e-06
2.59343e-08
6.26218e-06
-6.25782e-09
6.25301e-06
-6.03585e-08
6.24954e-06
-3.32908e-08
6.24146e-06
-1.10033e-08
6.23317e-06
-1.44122e-08
6.23139e-06
8.11711e-09
6.2323e-06
4.10171e-08
5.84937e-08
6.23245e-06
6.56023e-06
-7.51102e-08
6.55998e-06
-3.46121e-07
6.56918e-06
1.00304e-07
6.55478e-06
-8.20891e-10
6.56273e-06
-4.35447e-08
6.55295e-06
2.13835e-08
6.5543e-06
5.09007e-08
6.55987e-06
3.6215e-08
6.56496e-06
9.68591e-08
6.56827e-06
9.07755e-08
6.56685e-06
1.13218e-08
6.56841e-06
2.43813e-08
6.56113e-06
1.02047e-09
6.55148e-06
-5.071e-08
6.54817e-06
-2.998e-08
6.54142e-06
-4.25827e-09
6.53317e-06
-6.16057e-09
6.53101e-06
1.02798e-08
6.53207e-06
3.99545e-08
5.76638e-08
6.5329e-06
6.87546e-06
-6.07797e-08
6.87262e-06
-3.43282e-07
6.88428e-06
8.86402e-08
6.86958e-06
1.38884e-08
6.8761e-06
-5.00702e-08
6.86911e-06
2.83697e-08
6.86788e-06
5.21356e-08
6.8734e-06
3.06897e-08
6.87931e-06
9.09556e-08
6.88138e-06
8.87013e-08
6.87952e-06
1.31867e-08
6.88118e-06
2.2718e-08
6.87458e-06
7.62352e-09
6.86454e-06
-4.06763e-08
6.86113e-06
-2.65627e-08
6.85572e-06
1.14717e-09
6.84776e-06
1.79897e-09
6.84512e-06
1.29248e-08
6.84628e-06
3.87934e-08
5.63826e-08
6.84756e-06
7.20588e-06
-4.75205e-08
7.19999e-06
-3.37397e-07
7.21401e-06
7.46214e-08
7.19977e-06
2.81296e-08
7.20442e-06
-5.47174e-08
7.20021e-06
3.25723e-08
7.19701e-06
5.53398e-08
7.20169e-06
2.60118e-08
7.2085e-06
8.41459e-08
7.2099e-06
8.7303e-08
7.20722e-06
1.58638e-08
7.20881e-06
2.1122e-08
7.20308e-06
1.33607e-08
7.19294e-06
-3.05395e-08
7.18914e-06
-2.27642e-08
7.18497e-06
5.31747e-09
7.17766e-06
9.11289e-09
7.17446e-06
1.61265e-08
7.17557e-06
3.76821e-08
5.47405e-08
7.17721e-06
7.55218e-06
-3.54703e-08
7.54289e-06
-3.28112e-07
7.55904e-06
5.84746e-08
7.54604e-06
4.1126e-08
7.54848e-06
-5.71602e-08
7.54683e-06
3.42253e-08
7.5424e-06
5.97692e-08
7.54561e-06
2.28071e-08
7.55323e-06
7.65241e-08
7.55441e-06
8.61202e-08
7.5509e-06
1.93725e-08
7.55212e-06
1.99094e-08
7.54728e-06
1.81919e-08
7.53733e-06
-2.0585e-08
7.53308e-06
-1.8513e-08
7.52987e-06
8.52487e-09
7.52348e-06
1.55074e-08
7.51981e-06
1.97977e-08
7.52066e-06
3.68285e-08
5.28126e-08
7.52259e-06
7.91508e-06
-2.47347e-08
7.90231e-06
-3.1535e-07
7.92012e-06
4.06682e-08
7.90907e-06
5.21715e-08
7.90914e-06
-5.72247e-08
7.90959e-06
3.37703e-08
7.90476e-06
6.46056e-08
7.90616e-06
2.14006e-08
7.91405e-06
6.8637e-08
7.91554e-06
8.46281e-08
7.91139e-06
2.35281e-08
7.91199e-06
1.93042e-08
7.90796e-06
2.2223e-08
7.89837e-06
-1.09967e-08
7.89367e-06
-1.38095e-08
7.89124e-06
1.09556e-08
7.88588e-06
2.08709e-08
7.88198e-06
2.36909e-08
7.88243e-06
3.63819e-08
5.07976e-08
7.88444e-06
8.29532e-06
-1.53758e-08
8.27935e-06
-2.99382e-07
8.29805e-06
2.19752e-08
8.28954e-06
6.0682e-08
8.28726e-06
-5.4953e-08
8.28925e-06
3.17859e-08
8.28469e-06
6.91609e-08
8.28436e-06
2.17397e-08
8.29181e-06
6.11814e-08
8.29382e-06
8.26156e-08
8.28937e-06
2.79815e-08
8.28938e-06
1.92908e-08
8.28601e-06
2.55997e-08
8.27683e-06
-1.82528e-09
8.27172e-06
-8.6921e-09
8.26987e-06
1.28066e-08
8.2656e-06
2.51353e-08
8.26173e-06
2.75646e-08
8.26169e-06
3.64162e-08
4.88154e-08
8.26368e-06
8.69369e-06
-7.40538e-09
8.67509e-06
-2.80783e-07
8.69368e-06
3.39081e-09
8.68808e-06
6.62742e-08
8.68379e-06
-5.06542e-08
8.68666e-06
2.89072e-08
8.68282e-06
7.30105e-08
8.68109e-06
2.34677e-08
8.68762e-06
5.46491e-08
8.68994e-06
8.02953e-08
8.68554e-06
3.23856e-08
8.6851e-06
1.97261e-08
8.68233e-06
2.83659e-08
8.67361e-06
6.9023e-09
8.66805e-06
-3.13576e-09
8.66655e-06
1.43104e-08
8.66349e-06
2.81911e-08
8.6598e-06
3.12566e-08
8.65931e-06
3.69034e-08
4.69325e-08
8.66119e-06
9.111e-06
-7.85444e-10
9.09051e-06
-2.60294e-07
9.10795e-06
-1.40504e-08
9.10541e-06
6.88134e-08
9.09964e-06
-4.48854e-08
9.10277e-06
2.57782e-08
9.09985e-06
7.59305e-08
9.09715e-06
2.6172e-08
9.10256e-06
4.92395e-08
9.10485e-06
7.79986e-08
9.10057e-06
3.66685e-08
9.09988e-06
2.04204e-08
9.0978e-06
3.04419e-08
9.08969e-06
1.50155e-08
9.08357e-06
2.97953e-09
9.08214e-06
1.57414e-08
9.0803e-06
3.00359e-08
9.07707e-06
3.44854e-08
9.07617e-06
3.7805e-08
4.52224e-08
9.07788e-06
9.5481e-06
4.57131e-09
9.52653e-06
-2.38717e-07
9.54189e-06
-2.94186e-08
9.5423e-06
6.84116e-08
9.53573e-06
-3.83237e-08
9.53862e-06
2.28903e-08
9.53652e-06
7.80307e-08
9.53333e-06
2.9364e-08
9.53778e-06
4.47871e-08
9.53972e-06
7.60626e-08
9.53525e-06
4.11363e-08
9.53439e-06
2.12802e-08
9.53329e-06
3.15456e-08
9.526e-06
2.23052e-08
9.51936e-06
9.61983e-09
9.51766e-06
1.74376e-08
9.51675e-06
3.09454e-08
9.51442e-06
3.68211e-08
9.51314e-06
3.90856e-08
4.3764e-08
9.51459e-06
1.00059e-05
8.79441e-09
9.98399e-06
-2.16795e-07
9.99663e-06
-4.2062e-08
9.99958e-06
6.54682e-08
9.99293e-06
-3.16727e-08
9.99538e-06
2.04337e-08
9.99373e-06
7.96797e-08
9.99033e-06
3.27649e-08
9.99428e-06
4.08416e-08
9.9958e-06
7.45425e-08
9.99079e-06
4.61397e-08
9.98955e-06
2.25243e-08
9.98947e-06
3.16248e-08
9.9834e-06
2.83763e-08
9.97649e-06
1.65328e-08
9.97417e-06
1.97544e-08
9.97381e-06
3.13018e-08
9.97263e-06
3.80043e-08
9.97125e-06
4.0461e-08
4.26912e-08
9.97233e-06
1.04854e-05
1.2045e-08
1.04638e-05
-1.95185e-07
1.04734e-05
-5.16492e-08
1.04782e-05
6.06491e-08
1.04721e-05
-2.55744e-08
1.04741e-05
1.84269e-08
1.04727e-05
8.1113e-08
1.0469e-05
3.64677e-08
1.04729e-05
3.68825e-08
1.04744e-05
7.31067e-08
1.04685e-05
5.19587e-08
1.04663e-05
2.47165e-08
1.04672e-05
3.07664e-08
1.04628e-05
3.28053e-08
1.04559e-05
2.33691e-08
1.04528e-05
2.28496e-08
1.04526e-05
3.14996e-08
1.04525e-05
3.81949e-08
1.04516e-05
4.12888e-08
4.21734e-08
1.04521e-05
1.09876e-05
1.44976e-08
1.09668e-05
-1.74437e-07
1.09733e-05
-5.81552e-08
1.09792e-05
5.4751e-08
1.09741e-05
-2.04326e-08
1.09758e-05
1.66579e-08
1.09745e-05
8.24288e-08
1.09702e-05
4.07605e-08
1.09744e-05
3.27258e-08
1.09766e-05
7.09505e-08
1.09699e-05
5.86349e-08
1.09661e-05
2.84962e-08
1.09674e-05
2.94488e-08
1.09649e-05
3.53001e-08
1.09586e-05
2.96447e-08
1.09549e-05
2.65741e-08
1.09545e-05
3.19632e-08
1.09549e-05
3.77812e-08
1.0955e-05
4.11363e-08
4.19414e-08
1.09553e-05
1.15135e-05
1.63195e-08
1.14941e-05
-1.54983e-07
1.14977e-05
-6.17999e-08
1.15039e-05
4.85805e-08
1.14999e-05
-1.63925e-08
1.15017e-05
1.48011e-08
1.15006e-05
8.35211e-08
1.14954e-05
4.60074e-08
1.14995e-05
2.86261e-08
1.15031e-05
6.73661e-08
1.14963e-05
6.54395e-08
1.14904e-05
3.43652e-08
1.14913e-05
2.85213e-08
1.14907e-05
3.59405e-08
1.14856e-05
3.47341e-08
1.14815e-05
3.06967e-08
1.14805e-05
3.29464e-08
1.14811e-05
3.71584e-08
1.14821e-05
4.01444e-08
4.13753e-08
1.14827e-05
1.20645e-05
1.76447e-08
1.20466e-05
-1.37051e-07
1.20478e-05
-6.30648e-08
1.20536e-05
4.28586e-08
1.20504e-05
-1.32797e-08
1.20527e-05
1.25168e-08
1.20521e-05
8.4122e-08
1.20458e-05
5.22909e-08
1.20491e-05
2.53834e-08
1.20546e-05
6.1852e-08
1.20487e-05
7.13775e-08
1.20409e-05
4.21461e-08
1.20403e-05
2.90638e-08
1.20411e-05
3.51596e-08
1.20378e-05
3.80677e-08
1.20335e-05
3.49339e-08
1.2032e-05
3.445e-08
1.20325e-05
3.66617e-08
1.20339e-05
3.88066e-08
4.00228e-08
1.20352e-05
1.26417e-05
1.85683e-08
1.26253e-05
-1.20714e-07
1.26248e-05
-6.25435e-08
1.26295e-05
3.81499e-08
1.2627e-05
-1.0751e-08
1.26299e-05
9.60142e-09
1.26302e-05
8.3818e-08
1.2623e-05
5.94711e-08
1.26245e-05
2.39584e-08
1.26319e-05
5.43787e-08
1.26281e-05
7.52528e-08
1.26189e-05
5.12756e-08
1.26162e-05
3.17982e-08
1.26175e-05
3.38193e-08
1.26161e-05
3.945e-08
1.26124e-05
3.8666e-08
1.26104e-05
3.64325e-08
1.26106e-05
3.65135e-08
1.26119e-05
3.74591e-08
3.80191e-08
1.26139e-05
1.32464e-05
1.91383e-08
1.32315e-05
-1.05888e-07
1.32298e-05
-6.0847e-08
1.32333e-05
3.47179e-08
1.32308e-05
-8.31652e-09
1.32344e-05
6.02576e-09
1.3236e-05
8.22017e-08
1.32284e-05
6.71435e-08
1.32273e-05
2.50432e-08
1.32359e-05
4.57228e-08
1.32352e-05
7.59445e-08
1.32257e-05
6.07773e-08
1.32207e-05
3.68664e-08
1.32215e-05
3.29709e-08
1.32218e-05
3.91946e-08
1.32193e-05
4.11086e-08
1.3217e-05
3.87242e-08
1.32168e-05
3.6755e-08
1.3218e-05
3.62673e-08
3.5865e-08
1.32201e-05
1.38799e-05
1.93626e-08
1.38664e-05
-9.23772e-08
1.38641e-05
-5.84984e-08
1.38663e-05
3.25106e-08
1.38634e-05
-5.38359e-09
1.38675e-05
1.90919e-09
1.38707e-05
7.898e-08
1.38631e-05
7.47106e-08
1.38593e-05
2.88345e-08
1.38678e-05
3.72753e-08
1.38708e-05
7.29015e-08
1.38624e-05
6.91755e-08
1.38553e-05
4.39606e-08
1.38548e-05
3.35334e-08
1.38561e-05
3.78545e-08
1.38553e-05
4.19226e-08
1.38533e-05
4.07416e-08
1.38528e-05
3.72747e-08
1.38537e-05
3.53002e-08
3.3951e-08
1.38556e-05
1.45438e-05
1.9213e-08
1.45313e-05
-7.98771e-08
1.45288e-05
-5.59496e-08
1.453e-05
3.12865e-08
1.45261e-05
-1.5309e-09
1.45304e-05
-2.33687e-09
1.45354e-05
7.3978e-08
1.45287e-05
8.14401e-08
1.45225e-05
3.49738e-08
1.45291e-05
3.06857e-08
1.45357e-05
6.63458e-08
1.45299e-05
7.49044e-08
1.45216e-05
5.23147e-08
1.45191e-05
3.59783e-08
1.45208e-05
3.62149e-08
1.45215e-05
4.1233e-08
1.45203e-05
4.18643e-08
1.45196e-05
3.8017e-08
1.45204e-05
3.45223e-08
3.23027e-08
1.4522e-05
1.52394e-05
1.86468e-08
1.52277e-05
-6.81012e-08
1.52252e-05
-5.34515e-08
1.52258e-05
3.06371e-08
1.52209e-05
3.42015e-09
1.52246e-05
-6.04459e-09
1.52313e-05
6.72216e-08
1.52262e-05
8.65457e-08
1.52184e-05
4.27996e-08
1.5222e-05
2.7108e-08
1.52309e-05
5.74452e-08
1.5229e-05
7.68254e-08
1.52206e-05
6.06693e-08
1.52164e-05
4.02191e-08
1.52174e-05
3.52031e-08
1.52193e-05
3.93614e-08
1.52194e-05
4.16913e-08
1.52187e-05
3.87188e-08
1.52193e-05
3.39666e-08
3.09575e-08
1.52206e-05
1.59683e-05
1.76322e-08
1.59571e-05
-5.68245e-08
1.59547e-05
-5.10454e-08
1.59553e-05
3.00278e-08
1.59492e-05
9.47044e-09
1.59517e-05
-8.48238e-09
1.596e-05
5.88802e-08
1.59571e-05
8.94063e-08
1.59484e-05
5.1507e-08
1.59486e-05
2.69349e-08
1.59581e-05
4.79692e-08
1.59603e-05
7.45619e-08
1.59535e-05
6.75186e-08
1.5948e-05
4.5736e-08
1.59477e-05
3.54504e-08
1.59502e-05
3.68724e-08
1.59518e-05
4.01055e-08
1.59516e-05
3.89167e-08
1.59518e-05
3.37318e-08
2.98793e-08
1.59529e-05
1.67321e-05
1.61767e-08
1.67212e-05
-4.59576e-08
1.67187e-05
-4.85752e-08
1.67198e-05
2.89753e-08
1.67129e-05
1.63254e-08
1.67134e-05
-8.96507e-09
1.67229e-05
4.93928e-08
1.67227e-05
8.96052e-08
1.67141e-05
6.01428e-08
1.67112e-05
2.97707e-08
1.67193e-05
3.99002e-08
1.67253e-05
6.859e-08
1.67213e-05
7.15159e-08
1.67151e-05
5.18504e-08
1.67136e-05
3.69697e-08
1.67158e-05
3.46578e-08
1.67185e-05
3.74296e-08
1.67194e-05
3.80392e-08
1.67193e-05
3.3783e-08
2.9023e-08
1.67202e-05
1.75322e-05
1.43366e-08
1.75218e-05
-3.55659e-08
1.7519e-05
-4.57432e-08
1.75208e-05
2.71266e-08
1.75137e-05
2.34705e-08
1.75118e-05
-7.05173e-09
1.75217e-05
3.94616e-08
1.75243e-05
8.70189e-08
1.75166e-05
6.78026e-08
1.75116e-05
3.47888e-08
1.75168e-05
3.46617e-08
1.75252e-05
6.02331e-08
1.75249e-05
7.17999e-08
1.75192e-05
5.75391e-08
1.75166e-05
3.96401e-08
1.75179e-05
3.33247e-08
1.75209e-05
3.44249e-08
1.7523e-05
3.59767e-08
1.7523e-05
3.37173e-08
2.86322e-08
1.75234e-05
1.83705e-05
1.22175e-08
1.83607e-05
-2.58486e-08
1.83572e-05
-4.21934e-08
1.83599e-05
2.4409e-08
1.83533e-05
3.01349e-08
1.83489e-05
-2.67779e-09
1.83581e-05
3.01995e-08
1.83635e-05
8.16821e-08
1.83576e-05
7.37028e-08
1.83513e-05
4.10386e-08
1.83536e-05
3.24334e-08
1.83622e-05
5.15692e-08
1.83655e-05
6.84891e-08
1.83617e-05
6.13974e-08
1.83579e-05
4.33616e-08
1.83582e-05
3.30859e-08
1.83608e-05
3.18365e-08
1.83634e-05
3.33094e-08
1.83643e-05
3.28602e-08
2.86711e-08
1.83643e-05
1.92486e-05
9.96456e-09
1.92398e-05