/*--------------------------------*- C++ -*----------------------------------*\
| =========                 |                                                 |
| \\      /  F ield         | OpenFOAM: The Open Source CFD Toolbox           |
|  \\    /   O peration     | Version:  2106                                  |
|   \\  /    A nd           | Website:  www.openfoam.com                      |
|    \\/     M anipulation  |                                                 |
\*---------------------------------------------------------------------------*/
FoamFile
{
    version     2.0;
    format      ascii;
    arch        "LSB;label=32;scalar=64";
    class       volScalarField;
    location    "0.58";
    object      p;
}
// * * * * * * * * * * * * * * * * * * * * * * * * * * * * * * * * * * * * * //

dimensions      [0 2 -2 0 0 0 0];

internalField   nonuniform List<scalar> 
9600
(
7.17972e-11
1.50217e-05
-0.000532416
0.00020135
0.00146808
0.00152748
0.000450629
-0.000153158
-0.000970603
0.000133578
0.000300367
0.00109593
0.000407411
0.00100943
0.00129416
0.002459
0.00286505
0.00549619
0.00731326
0.012737
2.64042e-06
4.36845e-06
-0.000533948
0.000209845
0.00146828
0.00151336
0.000460791
-0.000161456
-0.00095694
0.000141137
0.00029739
0.00108804
0.000412275
0.00101028
0.00130001
0.00245463
0.00287941
0.00543628
0.007336
0.0120709
4.97536e-06
-5.16829e-06
-0.000533395
0.000218759
0.0014633
0.00149626
0.000470957
-0.000172105
-0.000938753
0.000150653
0.000292138
0.00107578
0.000423415
0.00101173
0.00130548
0.00245257
0.00289552
0.00538785
0.00732606
0.0114836
6.73777e-06
-1.24988e-05
-0.000531607
0.000224332
0.00145516
0.00147731
0.000477638
-0.000183999
-0.000915065
0.000162871
0.000284644
0.00105954
0.000438911
0.00101136
0.0013092
0.00244892
0.00291363
0.00531691
0.00729376
0.0109074
8.3202e-06
-1.8007e-05
-0.000529137
0.000226851
0.00144483
0.00145577
0.000482186
-0.000196232
-0.000886272
0.000175581
0.000274212
0.00103966
0.000456626
0.00100828
0.00131282
0.00244179
0.0029315
0.0052347
0.00723785
0.0103719
9.96048e-06
-2.17067e-05
-0.000526347
0.000226788
0.0014328
0.00143205
0.00048584
-0.000208491
-0.000854105
0.000187178
0.000261798
0.0010174
0.000475013
0.00100283
0.001318
0.00243071
0.00294944
0.00514388
0.00716004
0.00986428
1.17531e-05
-2.39797e-05
-0.000523658
0.000224627
0.00141984
0.00140666
0.000489101
-0.000220686
-0.000819982
0.000197464
0.000248576
0.0009937
0.000493327
0.000995493
0.00132515
0.00241604
0.0029665
0.00504584
0.00705709
0.0093814
1.37561e-05
-2.5402e-05
-0.000521282
0.00022104
0.00140648
0.0013798
0.000492318
-0.000232857
-0.000784762
0.000206816
0.000235275
0.000968906
0.000511298
0.000986504
0.00133397
0.00239819
0.00298037
0.00494197
0.00692834
0.00892109
1.60135e-05
-2.6508e-05
-0.000519165
0.000216643
0.00139296
0.00135163
0.000495718
-0.000245115
-0.000748865
0.000215623
0.000222155
0.000943154
0.000528897
0.000975978
0.00134381
0.00237757
0.00298877
0.00483362
0.00677423
0.00848058
1.8554e-05
-2.76826e-05
-0.000517128
0.000211839
0.00137938
0.00132231
0.000499368
-0.000257582
-0.000712521
0.000224183
0.000209218
0.000916572
0.000546099
0.000964094
0.00135371
0.00235473
0.00298987
0.00472151
0.0065961
0.00805644
2.1395e-05
-2.91663e-05
-0.000514999
0.000206877
0.00136581
0.001292
0.00050324
-0.000270355
-0.000675896
0.000232751
0.000196363
0.000889386
0.000562688
0.00095116
0.00136264
0.00233015
0.00298215
0.00460581
0.00639619
0.00764485
2.45468e-05
-3.10989e-05
-0.000512679
0.00020191
0.00135232
0.00126077
0.00050726
-0.000283485
-0.000639149
0.000241557
0.000183424
0.000861829
0.000578311
0.000937618
0.00136972
0.00230413
0.00296445
0.00448598
0.00617756
0.00724225
2.80161e-05
-3.35597e-05
-0.000510147
0.000197011
0.00133887
0.0012287
0.000511337
-0.00029696
-0.000602466
0.000250807
0.000170203
0.000834138
0.000592511
0.000923958
0.00137423
0.00227674
0.00293627
0.00436062
0.00594394
0.00684629
3.1809e-05
-3.65952e-05
-0.000507439
0.000192186
0.00132538
0.00119582
0.00051537
-0.0003107
-0.000566094
0.000260742
0.000156456
0.00080661
0.00060478
0.000910491
0.00137552
0.00224777
0.00289784
0.00422747
0.00569909
0.00645626
3.59313e-05
-4.02362e-05
-0.000504629
0.000187409
0.00131177
0.00116219
0.00051924
-0.00032457
-0.000530343
0.000271646
0.000141879
0.000779559
0.000614742
0.000897327
0.00137332
0.00221647
0.00284979
0.0040842
0.00544541
0.00607254
4.03878e-05
-4.45087e-05
-0.000501802
0.00018265
0.00129794
0.00112791
0.0005228
-0.000338382
-0.000495586
0.000283834
0.000126149
0.00075322
0.000622173
0.000884313
0.00136772
0.00218138
0.00279317
0.00392975
0.00518398
0.00569571
4.51824e-05
-4.94368e-05
-0.000499048
0.000177888
0.00128379
0.00109309
0.000525885
-0.000351908
-0.000462246
0.000297621
0.000109015
0.000727783
0.000626879
0.000871055
0.0013592
0.00214057
0.00272896
0.00376464
0.00491515
0.00532626
5.03159e-05
-5.50405e-05
-0.000496459
0.000173117
0.00126923
0.00105787
0.000528315
-0.000364896
-0.000430793
0.000313306
9.02948e-05
0.000703374
0.00062887
0.000856903
0.00134867
0.00209215
0.00265722
0.00359048
0.00463801
0.00496415
5.57878e-05
-6.13359e-05
-0.000494129
0.000168336
0.00125417
0.00102242
0.000529862
-0.000377045
-0.000401723
0.000331136
6.98711e-05
0.000683061
0.000628639
0.000840638
0.00133699
0.00203523
0.00257678
0.00340963
0.00435186
0.00460875
6.15964e-05
-6.83335e-05
-0.000492151
0.000163552
0.00123854
0.000986991
0.000530245
-0.000388046
-0.000375465
0.000351267
4.7685e-05
0.000660394
0.000627086
0.000820629
0.00132459
0.00196974
0.00248584
0.00322494
0.00405755
0.00425876
6.77363e-05
-7.60361e-05
-0.000490625
0.000158783
0.00122223
0.000951848
0.000529149
-0.000397617
-0.000352388
0.000373783
2.38968e-05
0.00063721
0.000625474
0.000795309
0.00131113
0.00189644
0.00238184
0.00303886
0.0037579
0.00391203
7.42026e-05
-8.44417e-05
-0.000489665
0.000154066
0.00120516
0.000917255
0.000526256
-0.000405471
-0.000332886
0.000398697
-9.50518e-07
0.000612429
0.000625053
0.000763673
0.00129546
0.00181705
0.00226243
0.00285212
0.00345694
0.00356584
8.09867e-05
-9.35316e-05
-0.000489406
0.000149451
0.00118719
0.00088353
0.000521238
-0.000411409
-0.000317185
0.000425771
-2.59808e-05
0.000584493
0.000626724
0.000725356
0.00127557
0.0017341
0.00212648
0.0026634
0.00315916
0.00321821
8.80715e-05
-0.000103271
-0.000490005
0.000144997
0.0011682
0.000850999
0.000513803
-0.000415316
-0.000305286
0.000454313
-5.00049e-05
0.000551901
0.00063089
0.000680453
0.00124877
0.00165008
0.00197395
0.00247
0.00286933
0.00286927
9.54399e-05
-0.000113615
-0.000491647
0.000140768
0.00114806
0.000819962
0.000503765
-0.000417223
-0.000297073
0.000483487
-7.17006e-05
0.000513564
0.000637518
0.00062973
0.00121197
0.00156651
0.00180651
0.00226865
0.00259155
0.00252199
0.000103068
-0.000124487
-0.00049456
0.00013685
0.00112665
0.000790666
0.000491033
-0.000417297
-0.000292218
0.000512295
-8.97952e-05
0.000468767
0.000645821
0.000574703
0.00116205
0.00148386
0.00162766
0.00205587
0.00232792
0.00218217
0.000110907
-0.000135786
-0.000498993
0.00013336
0.00110382
0.000763259
0.000475659
-0.000415738
-0.000290122
0.000539378
-0.000103436
0.000417027
0.000654242
0.000517273
0.00109662
0.00140168
0.00144221
0.00182858
0.0020774
0.00185789
0.000118879
-0.000147354
-0.000505209
0.000130387
0.00107946
0.000737825
0.000457958
-0.000413198
-0.000289957
0.000563738
-0.00011239
0.000358554
0.000660829
0.000459007
0.00101432
0.00131883
0.00125563
0.00158479
0.00183551
0.00155764
0.000126906
-0.000159001
-0.000513531
0.000128019
0.00105355
0.000714296
0.00043851
-0.000410627
-0.000291003
0.000584871
-0.000116888
0.000293988
0.000663731
0.000401001
0.000914492
0.00123352
0.0010736
0.00132469
0.00159446
0.00128767
0.000134882
-0.000170509
-0.000524339
0.000126355
0.00102619
0.000692384
0.000418155
-0.000408927
-0.000292971
0.000602456
-0.000117649
0.000223804
0.000661326
0.000344311
0.000797329
0.00114324
0.000901558
0.00105201
0.00134408
0.00104836
0.000142644
-0.000181553
-0.000538011
0.000125316
0.000997641
0.000671631
0.000397934
-0.000408964
-0.000295833
0.000616586
-0.000115648
0.000148095
0.000651933
0.000290367
0.000663729
0.00104446
0.000743688
0.000774354
0.00107502
0.000831411
0.000150033
-0.000191749
-0.000554924
0.000124652
0.000968318
0.000651424
0.000379028
-0.000411221
-0.000300077
0.000627558
-0.000111519
6.69959e-05
0.000633757
0.000240976
0.000515453
0.00093276
0.00060155
0.000500964
0.000783742
0.000622281
0.000156852
-0.000200709
-0.000575407
0.000124075
0.000938811
0.000630906
0.000362612
-0.000415782
-0.000307036
0.000635959
-0.000105285
-2.03127e-05
0.000604794
0.000198191
0.000355674
0.000803331
0.000473098
0.000240687
0.000474506
0.000404681
0.00016281
-0.000207977
-0.000599573
0.00012304
0.000909895
0.000609016
0.000349334
-0.000422073
-0.00031834
0.000641866
-9.66461e-05
-0.00011461
0.000562553
0.000163901
0.000188932
0.000651962
0.000353777
1.48902e-07
0.000155876
0.000167368
0.00016759
-0.000213064
-0.000627378
0.000120589
0.000882581
0.000584842
0.000339231
-0.000428659
-0.000335625
0.000644449
-8.44872e-05
-0.000214809
0.000504088
0.000139201
2.11597e-05
0.000476092
0.000237777
-0.000216566
-0.000163448
-9.2984e-05
0.0001709
-0.00021551
-0.000658642
0.000115472
0.000858089
0.000557757
0.000331762
-0.000433496
-0.000360594
0.000642055
-6.71363e-05
-0.000324983
0.000426054
0.000123498
-0.000140196
0.000275404
0.000117639
-0.000406995
-0.000475043
-0.000374847
0.00017239
-0.000214941
-0.000692854
0.00010618
0.000837595
0.000527531
0.000325467
-0.000433653
-0.000393733
0.000631459
-4.38702e-05
-0.000438364
0.000325287
0.000113459
-0.000286707
5.2885e-05
-1.60495e-05
-0.000571274
-0.000769268
-0.000674385
0.000171665
-0.000211046
-0.000729118
9.07425e-05
0.000822036
0.000494611
0.000317753
-0.000426436
-0.00043397
0.000608236
-1.34608e-05
-0.000549062
0.000199827
0.000102172
-0.000410866
-0.000184397
-0.000172667
-0.000714313
-0.00103579
-0.000984727
0.000168311
-0.000203585
-0.000766156
6.68371e-05
0.000811747
0.000460684
0.000305297
-0.000410459
-0.000478716
0.000568529
2.17279e-05
-0.000651114
5.01706e-05
8.03174e-05
-0.00050975
-0.000426312
-0.000357516
-0.000845865
-0.00126683
-0.00129413
0.000161904
-0.000192516
-0.000802321
3.24798e-05
0.000806308
0.0004284
0.000284728
-0.000385754
-0.000523754
0.000509433
5.77318e-05
-0.000738533
-0.000120654
3.86809e-05
-0.00058547
-0.000661962
-0.000570027
-0.000978653
-0.00146134
-0.00158703
0.000152009
-0.000177976
-0.000835671
-1.37944e-05
0.000804258
0.000400828
0.000253975
-0.000352719
-0.000564104
0.000429944
8.76717e-05
-0.000806872
-0.000306225
-2.91194e-05
-0.000642658
-0.00088173
-0.00080502
-0.00112469
-0.00162603
-0.00184895
0.00013821
-0.00016035
-0.000863954
-7.28822e-05
0.000802849
0.000381513
0.000212683
-0.000320436
-0.000594819
0.000331313
0.00010283
-0.000854688
-0.000496811
-0.000125788
-0.000688423
-0.00107782
-0.00105413
-0.00129143
-0.00177224
-0.0020712
0.0001202
-0.000140341
-0.000884892
-0.000145094
0.000798109
0.00037334
0.000160892
-0.000293159
-0.000612265
0.00021933
9.63133e-05
-0.000885528
-0.000683071
-0.000250559
-0.000731344
-0.00124538
-0.00130722
-0.0014808
-0.00191342
-0.00225483
9.78426e-05
-0.000118892
-0.000896576
-0.000229649
0.000785296
0.000377537
0.000101172
-0.000276812
-0.000615213
0.000103422
6.56689e-05
-0.00090688
-0.000859271
-0.00039995
-0.000779859
-0.00138394
-0.00155407
-0.00168989
-0.00206105
-0.00240974
7.11965e-05
-9.73501e-05
-0.000897381
-0.00032425
0.000759541
0.000394867
3.88858e-05
-0.000276875
-0.000605679
-7.83763e-06
1.14103e-05
-0.000926141
-0.00102221
-0.000568982
-0.000841275
-0.0014974
-0.00178569
-0.00191185
-0.00222016
-0.00255049
4.03747e-05
-7.72997e-05
-0.000886179
-0.000425441
0.000716366
0.00042119
-2.01902e-05
-0.000296125
-0.000589984
-0.000107521
-6.19626e-05
-0.000949117
-0.00117052
-0.000751654
-0.000920914
-0.00159163
-0.00199526
-0.00213866
-0.00238905
-0.00268886
5.80025e-06
-6.0535e-05
-0.000862697
-0.000547416
0.000651913
0.000452752
-6.97988e-05
-0.000334772
-0.000576246
-0.000193598
-0.000146554
-0.00097941
-0.00130467
-0.000941445
-0.00102127
-0.00167304
-0.00217942
-0.00236434
-0.00256398
-0.00282737
-3.16469e-05
-4.88421e-05
-0.000826747
-0.000643922
0.000564056
0.000483764
-0.000104677
-0.000390774
-0.000574335
-0.000265566
-0.00023531
-0.00101793
-0.00142628
-0.00113265
-0.00114169
-0.00174948
-0.0023377
-0.00258374
-0.00274448
-0.00296238
-7.1243e-05
-4.34074e-05
-0.000779601
-0.000732898
0.000452405
0.000507012
-0.000123616
-0.000457761
-0.000587455
-0.00032792
-0.00032512
-0.00106411
-0.00153676
-0.00131993
-0.00127842
-0.00182882
-0.00247219
-0.00279092
-0.00293197
-0.00309352
-0.000117582
-4.52065e-05
-0.000724212
-0.000810398
0.000319268
0.000515153
-0.000127481
-0.000527402
-0.000617288
-0.000386006
-0.000413461
-0.00111761
-0.00163816
-0.00149782
-0.0014252
-0.00191555
-0.00258918
-0.00298074
-0.00312388
-0.00322671
-0.000158047
-5.48087e-05
-0.000664576
-0.000873171
0.000169922
0.000501745
-0.000120068
-0.000593945
-0.000663566
-0.000443817
-0.000498644
-0.00117811
-0.00173357
-0.00166341
-0.00157498
-0.00200776
-0.00269575
-0.00315206
-0.00331389
-0.00336802
-0.000197802
-7.25516e-05
-0.000607348
-0.00091895
1.16276e-05
0.000462328
-0.00010848
-0.000653687
-0.000723432
-0.000504356
-0.000580316
-0.00124439
-0.00182504
-0.00181708
-0.00172112
-0.00209988
-0.00279367
-0.00330906
-0.00349768
-0.00351755
-0.000236374
-9.8432e-05
-0.000554862
-0.000946552
-0.000147646
0.000395001
-0.000100595
-0.000704905
-0.000793889
-0.000569302
-0.000658128
-0.00131549
-0.00191699
-0.00196079
-0.00185965
-0.00218665
-0.00287781
-0.00345393
-0.00367606
-0.00367085
-0.000273378
-0.00013187
-0.000510455
-0.000956609
-0.000301021
0.000300056
-0.000103034
-0.000747239
-0.000872362
-0.000641613
-0.000730264
-0.00138782
-0.00201395
-0.00209806
-0.00198904
-0.00226326
-0.00294339
-0.00358134
-0.00385165
-0.00382654
-0.000308675
-0.00017155
-0.00047672
-0.000952047
-0.000443723
0.000181485
-0.000120863
-0.000783376
-0.000955184
-0.000723196
-0.000797666
-0.00145641
-0.00211583
-0.00223833
-0.00211209
-0.00232565
-0.00298424
-0.00368174
-0.00402201
-0.00398974
-0.00034233
-0.000215808
-0.000455021
-0.000937387
-0.000572537
4.62528e-05
-0.000156568
-0.00081819
-0.0010407
-0.000813528
-0.000863438
-0.00151632
-0.00221655
-0.00238795
-0.00223828
-0.00237584
-0.00299455
-0.00374406
-0.00417485
-0.00416534
-0.000375072
-0.0002633
-0.000445862
-0.000919218
-0.000686183
-9.88783e-05
-0.000210995
-0.000854882
-0.00112918
-0.000912976
-0.000929027
-0.00156521
-0.00231066
-0.00254448
-0.00237995
-0.00242219
-0.00297456
-0.0037579
-0.00429304
-0.00434694
-0.00040724
-0.000312745
-0.000449131
-0.000900925
-0.000783919
-0.000248001
-0.000282737
-0.000895415
-0.00122057
-0.00102359
-0.000996949
-0.00160155
-0.00238933
-0.00270142
-0.00254328
-0.00248213
-0.002933
-0.00371866
-0.0043572
-0.00451366
-0.000439395
-0.000363338
-0.000463661
-0.000885696
-0.000868102
-0.000396777
-0.000368902
-0.000940828
-0.00131474
-0.00114669
-0.00107102
-0.00162673
-0.00244523
-0.00284916
-0.00272646
-0.00257201
-0.00288698
-0.00363366
-0.00435462
-0.00464189
-0.000472025
-0.000414783
-0.000487782
-0.000875727
-0.000942106
-0.000543257
-0.000466428
-0.000989486
-0.00141014
-0.00128424
-0.0011564
-0.00164244
-0.00247673
-0.00297249
-0.00291836
-0.00270264
-0.00286232
-0.00351825
-0.00428443
-0.00470673
-0.000505528
-0.000466917
-0.000520347
-0.00087218
-0.0010077
-0.0006862
-0.000573788
-0.0010403
-0.00150277
-0.00143537
-0.00126155
-0.00165171
-0.00248157
-0.00306621
-0.00310299
-0.00287069
-0.00288275
-0.00339971
-0.00415947
-0.0046919
-0.000540227
-0.000519838
-0.000560528
-0.000875436
-0.00106621
-0.000825299
-0.000689936
-0.0010938
-0.00158721
-0.00159373
-0.00139376
-0.00166742
-0.00245804
-0.00312622
-0.00326618
-0.00305993
-0.00296154
-0.00330814
-0.00399998
-0.00459991
-0.000576423
-0.000573544
-0.000607769
-0.000885806
-0.0011184
-0.000959643
-0.000814667
-0.00115138
-0.00165998
-0.00175224
-0.00155258
-0.00170691
-0.00241366
-0.00314334
-0.00340187
-0.00325153
-0.00308805
-0.00326677
-0.00383304
-0.004445
-0.000614459
-0.000628041
-0.000661412
-0.000903882
-0.00116513
-0.00108744
-0.000947649
-0.0012157
-0.00172004
-0.00190104
-0.00173199
-0.0017802
-0.00236792
-0.00311766
-0.00349746
-0.00343056
-0.00324294
-0.00328325
-0.00368677
-0.00424933
-0.000654657
-0.000683282
-0.000720701
-0.000930317
-0.00120756
-0.00120706
-0.00108691
-0.00129027
-0.00177067
-0.0020303
-0.00192336
-0.00189201
-0.00233972
-0.00306
-0.00354037
-0.00358149
-0.00340525
-0.00334485
-0.003584
-0.00404249
-0.000697364
-0.000739105
-0.000784895
-0.00096562
-0.00124707
-0.00131675
-0.00122957
-0.00137771
-0.00181699
-0.00213561
-0.00211178
-0.00204022
-0.00234366
-0.00298646
-0.00353139
-0.00368728
-0.00355612
-0.00343326
-0.00353101
-0.00385559
-0.000742915
-0.00079537
-0.000852971
-0.00101011
-0.00128549
-0.00141502
-0.001372
-0.00147882
-0.00186497
-0.00221946
-0.0022813
-0.00221206
-0.00239186
-0.0029173
-0.00347772
-0.00373685
-0.00367783
-0.00352979
-0.00351703
-0.00370744
-0.000791552
-0.000852004
-0.000923534
-0.00106357
-0.00132498
-0.00150164
-0.00151025
-0.00159234
-0.00192031
-0.00228719
-0.00242528
-0.00238979
-0.00248287
-0.00287521
-0.00339421
-0.00372693
-0.00375481
-0.00361624
-0.00352692
-0.00359879
-0.00084338
-0.000909072
-0.000994937
-0.00112506
-0.0013678
-0.00157766
-0.00164012
-0.00171496
-0.0019872
-0.00234433
-0.00254354
-0.00255753
-0.00260217
-0.00287402
-0.00330853
-0.00366519
-0.00377432
-0.003675
-0.00354404
-0.00352018
-0.00089825
-0.000966691
-0.00106566
-0.00119293
-0.00141597
-0.00164515
-0.0017582
-0.00184165
-0.00206756
-0.00239772
-0.00263766
-0.00270737
-0.00273535
-0.00291001
-0.0032456
-0.00357297
-0.00373312
-0.0036887
-0.00354966
-0.00346007
-0.000955714
-0.00102506
-0.00113454
-0.00126496
-0.00147064
-0.00170669
-0.00186265
-0.00196682
-0.00215994
-0.00245458
-0.00271218
-0.0028335
-0.00286987
-0.00297162
-0.00321221
-0.0034796
-0.00364507
-0.00364655
-0.00352596
-0.00340571
-0.00101501
-0.00108425
-0.001201
-0.00133842
-0.00153147
-0.0017654
-0.00195356
-0.00208504
-0.0022599
-0.00251899
-0.00277388
-0.00293186
-0.00299402
-0.00304903
-0.0032016
-0.00340105
-0.00353566
-0.00355611
-0.00346352
-0.00334499
-0.00107505
-0.00114405
-0.00126496
-0.00141062
-0.00159669
-0.00182381
-0.00203273
-0.00219193
-0.00236151
-0.00259084
-0.00283013
-0.00300427
-0.00309485
-0.00313064
-0.00320622
-0.00333641
-0.00342719
-0.00343848
-0.00337067
-0.00327715
-0.00113459
-0.00120379
-0.00132659
-0.0014794
-0.00166357
-0.00188324
-0.00210251
-0.00228503
-0.00245889
-0.00266667
-0.00288677
-0.0030584
-0.00316462
-0.00320092
-0.00322002
-0.00328151
-0.00332995
-0.00332267
-0.00327113
-0.00321212
-0.00119236
-0.00126227
-0.00138575
-0.00154368
-0.00172911
-0.00194316
-0.00216543
-0.00236446
-0.00254654
-0.00274045
-0.0029438
-0.00310529
-0.00320996
-0.0032506
-0.00323704
-0.00323574
-0.00324457
-0.0032235
-0.00318374
-0.00315663
-0.001247
-0.00131803
-0.00144174
-0.00160288
-0.00179069
-0.00200158
-0.00222338
-0.00243158
-0.00262187
-0.00280693
-0.00299478
-0.00314768
-0.00324394
-0.00328429
-0.00325564
-0.0032039
-0.00317101
-0.00313651
-0.00310473
-0.00310316
-0.00129708
-0.00136932
-0.00149343
-0.00165624
-0.00184628
-0.00205586
-0.00227646
-0.00248857
-0.00268431
-0.00286324
-0.00303458
-0.00317785
-0.00326866
-0.0033118
-0.00329267
-0.00321919
-0.00314404
-0.00307748
-0.00302789
-0.00302533
-0.00134103
-0.00141439
-0.001539
-0.00170257
-0.00189409
-0.00210332
-0.00232253
-0.00253565
-0.00273493
-0.00291222
-0.00306934
-0.0031944
-0.00326402
-0.00328622
-0.00327069
-0.00321312
-0.00314857
-0.00310276
-0.0030824
-0.00310523
-0.00137742
-0.00145171
-0.0015767
-0.00174039
-0.00193198
-0.00214061
-0.00235839
-0.00257033
-0.00276969
-0.00294737
-0.00309958
-0.00322087
-0.00329538
-0.00331237
-0.00328489
-0.00321524
-0.00312126
-0.00303903
-0.00299372
-0.00301073
-0.00140638
-0.00148378
-0.00161097
-0.0017763
-0.00196887
-0.00217786
-0.0023955
-0.00260702
-0.00280526
-0.00298174
-0.00313053
-0.00324349
-0.00331065
-0.00332137
-0.0032865
-0.00321753
-0.00313007
-0.00305363
-0.00301483
-0.00303894
0.015389
0.00868309
0.000108731
-0.00622166
-0.00831507
-0.00778378
-0.00686387
-0.00638759
-0.0063489
-0.00648371
-0.00653451
-0.00645746
-0.00639771
-0.00640988
-0.00647839
-0.00662957
-0.00679232
-0.00686583
-0.00690012
-0.00697095
-0.00704934
-0.00710854
-0.00717295
-0.00724634
-0.00732445
-0.00742497
-0.00754917
-0.00767942
-0.00781277
-0.00795836
-0.00811396
-0.00827651
-0.00844005
-0.00859803
-0.0087611
-0.00892657
-0.00908852
-0.00924705
-0.00939092
-0.00953368
-0.00969181
-0.00984144
-0.00999047
-0.0101783
-0.0103981
-0.0106195
-0.0108383
-0.011042
-0.0112095
-0.0113737
-0.0115698
-0.0117766
-0.0119692
-0.0121491
-0.0123232
-0.0125154
-0.0127128
-0.0128772
-0.0130371
-0.0132269
-0.0134156
-0.0135788
-0.0137496
-0.0139315
-0.0141084
-0.0142797
-0.0144591
-0.0146426
-0.0148226
-0.0150052
-0.0151893
-0.0153781
-0.015566
-0.015759
-0.0159545
-0.016154
-0.016361
-0.0165685
-0.0167798
-0.0169885
-0.0172029
-0.0174219
-0.0176444
-0.0178764
-0.0181082
-0.0183502
-0.0185903
-0.0188384
-0.0190871
-0.0193416
-0.0195995
-0.019861
-0.0201289
-0.0203973
-0.0206737
-0.020947
-0.0212342
-0.0215038
-0.0217699
-0.0220615
0.0145473
0.00852788
0.00019409
-0.00607777
-0.0082258
-0.00774029
-0.00683699
-0.00636929
-0.00633608
-0.00647434
-0.00652722
-0.00645122
-0.00639211
-0.00640478
-0.00647364
-0.00662533
-0.00678875
-0.00686268
-0.00689718
-0.00696826
-0.00704691
-0.00710627
-0.00717083
-0.00724436
-0.00732256
-0.00742315
-0.00754745
-0.00767779
-0.00781121
-0.00795688
-0.00811255
-0.00827516
-0.00843877
-0.0085968
-0.00875993
-0.00892546
-0.00908748
-0.00924608
-0.00939001
-0.0095328
-0.00969099
-0.00984069
-0.00998975
-0.0101776
-0.0103975
-0.010619
-0.0108377
-0.0110415
-0.0112091
-0.0113733
-0.0115694
-0.0117762
-0.0119689
-0.0121488
-0.0123229
-0.0125151
-0.0127125
-0.012877
-0.0130369
-0.0132267
-0.0134154
-0.0135786
-0.0137495
-0.0139314
-0.0141083
-0.0142796
-0.0144591
-0.0146426
-0.0148225
-0.0150051
-0.0151892
-0.015378
-0.0155659
-0.0157589
-0.0159544
-0.016154
-0.016361
-0.0165684
-0.0167797
-0.0169885
-0.0172029
-0.0174218
-0.0176444
-0.0178764
-0.0181082
-0.0183502
-0.0185903
-0.0188384
-0.0190871
-0.0193416
-0.0195995
-0.019861
-0.0201289
-0.0203973
-0.0206737
-0.020947
-0.0212342
-0.0215038
-0.0217699
-0.0220615
0.0137821
0.00839345
0.00037935
-0.00580692
-0.00807238
-0.00768323
-0.00680879
-0.00634768
-0.00631863
-0.00646063
-0.0065166
-0.00644307
-0.00638589
-0.00639975
-0.00646905
-0.00662108
-0.00678503
-0.00685941
-0.00689427
-0.00696573
-0.00704464
-0.00710414
-0.00716887
-0.00724257
-0.00732087
-0.00742154
-0.00754594
-0.00767636
-0.00780985
-0.00795558
-0.00811132
-0.008274
-0.00843767
-0.00859574
-0.00875891
-0.0089245
-0.00908656
-0.00924523
-0.00938921
-0.00953202
-0.00969027
-0.00984001
-0.00998908
-0.010177
-0.0103969
-0.0106185
-0.0108373
-0.0110411
-0.0112087
-0.0113729
-0.011569
-0.0117759
-0.0119686
-0.0121485
-0.0123226
-0.0125149
-0.0127123
-0.0128768
-0.0130367
-0.0132266
-0.0134153
-0.0135785
-0.0137494
-0.0139313
-0.0141082
-0.0142795
-0.014459
-0.0146425
-0.0148224
-0.0150051
-0.0151892
-0.015378
-0.0155659
-0.0157589
-0.0159544
-0.0161539
-0.016361
-0.0165684
-0.0167797
-0.0169885
-0.0172029
-0.0174218
-0.0176444
-0.0178764
-0.0181082
-0.0183502
-0.0185903
-0.0188384
-0.0190871
-0.0193416
-0.0195995
-0.019861
-0.0201289
-0.0203973
-0.0206737
-0.020947
-0.0212342
-0.0215038
-0.0217699
-0.0220615
0.0130569
0.00825484
0.00060911
-0.00546841
-0.00786426
-0.00760327
-0.00676797
-0.00631492
-0.00629129
-0.00643845
-0.00649914
-0.00643024
-0.00637707
-0.00639347
-0.00646359
-0.00661554
-0.00677961
-0.00685467
-0.00689046
-0.00696265
-0.00704191
-0.00710159
-0.00716657
-0.00724056
-0.00731905
-0.00741985
-0.00754434
-0.00767484
-0.00780841
-0.00795423
-0.00811004
-0.00827279
-0.00843655
-0.00859467
-0.00875787
-0.00892349
-0.00908559
-0.00924433
-0.00938836
-0.00953119
-0.00968948
-0.00983924
-0.0099883
-0.0101763
-0.0103963
-0.0106179
-0.0108368
-0.0110406
-0.0112082
-0.0113724
-0.0115686
-0.0117755
-0.0119682
-0.0121482
-0.0123223
-0.0125146
-0.0127121
-0.0128766
-0.0130365
-0.0132264
-0.0134151
-0.0135784
-0.0137492
-0.0139312
-0.0141081
-0.0142794
-0.0144589
-0.0146424
-0.0148224
-0.015005
-0.0151891
-0.015378
-0.0155658
-0.0157589
-0.0159544
-0.0161539
-0.016361
-0.0165684
-0.0167797
-0.0169884
-0.0172029
-0.0174218
-0.0176444
-0.0178764
-0.0181082
-0.0183502
-0.0185903
-0.0188384
-0.0190871
-0.0193416
-0.0195995
-0.019861
-0.0201289
-0.0203973
-0.0206737
-0.020947
-0.0212342
-0.0215038
-0.0217699
-0.0220616
0.0123355
0.00808561
0.000841712
-0.00511169
-0.0076345
-0.00751206
-0.00672065
-0.0062742
-0.00625481
-0.00640718
-0.0064736
-0.00641129
-0.00636434
-0.00638507
-0.00645679
-0.00660814
-0.00677156
-0.00684747
-0.00688496
-0.00695844
-0.00703829
-0.0070983
-0.00716367
-0.00723812
-0.00731698
-0.00741795
-0.00754251
-0.0076731
-0.00780679
-0.0079527
-0.00810856
-0.00827138
-0.00843526
-0.00859348
-0.00875673
-0.00892237
-0.00908448
-0.0092433
-0.00938741
-0.00953025
-0.00968851
-0.00983823
-0.0099873
-0.0101754
-0.0103956
-0.0106173
-0.0108361
-0.01104
-0.0112076
-0.0113719
-0.0115681
-0.011775
-0.0119678
-0.0121478
-0.012322
-0.0125142
-0.0127118
-0.0128763
-0.0130362
-0.0132262
-0.0134149
-0.0135782
-0.013749
-0.013931
-0.014108
-0.0142793
-0.0144588
-0.0146423
-0.0148223
-0.0150049
-0.0151891
-0.0153779
-0.0155658
-0.0157588
-0.0159543
-0.0161539
-0.0163609
-0.0165684
-0.0167797
-0.0169884
-0.0172028
-0.0174218
-0.0176443
-0.0178764
-0.0181082
-0.0183502
-0.0185903
-0.0188384
-0.0190871
-0.0193416
-0.0195995
-0.019861
-0.0201289
-0.0203973
-0.0206737
-0.020947
-0.0212342
-0.0215038
-0.0217699
-0.0220617
0.0116146
0.00788015
0.00106435
-0.00475064
-0.0073929
-0.00741514
-0.00667238
-0.00623083
-0.00621338
-0.00637008
-0.0064424
-0.00638768
-0.00634828
-0.00637466
-0.00644865
-0.00659891
-0.00676086
-0.00683764
-0.00687745
-0.00695271
-0.00703347
-0.00709407
-0.00716006
-0.00723521
-0.00731464
-0.00741585
-0.00754042
-0.00767111
-0.00780498
-0.007951
-0.00810684
-0.00826967
-0.00843368
-0.00859207
-0.00875541
-0.00892105
-0.00908319
-0.00924215
-0.0093864
-0.00952923
-0.00968735
-0.00983693
-0.00998598
-0.0101743
-0.0103947
-0.0106164
-0.0108352
-0.0110391
-0.0112069
-0.0113712
-0.0115675
-0.0117744
-0.0119672
-0.0121472
-0.0123215
-0.0125138
-0.0127113
-0.0128759
-0.0130358
-0.0132258
-0.0134146
-0.0135779
-0.0137488
-0.0139308
-0.0141078
-0.0142791
-0.0144586
-0.0146422
-0.0148221
-0.0150048
-0.015189
-0.0153778
-0.0155657
-0.0157588
-0.0159543
-0.0161538
-0.0163609
-0.0165683
-0.0167796
-0.0169884
-0.0172028
-0.0174218
-0.0176443
-0.0178764
-0.0181082
-0.0183502
-0.0185903
-0.0188384
-0.019087
-0.0193416
-0.0195995
-0.019861
-0.0201289
-0.0203973
-0.0206737
-0.020947
-0.0212342
-0.0215039
-0.02177
-0.0220618
0.0109
0.00764068
0.0012736
-0.00438758
-0.00713968
-0.00731205
-0.00662398
-0.00618664
-0.006169
-0.00632938
-0.00640782
-0.00636125
-0.0063301
-0.00636283
-0.0064395
-0.00658832
-0.00674823
-0.00682578
-0.00686819
-0.00694546
-0.00702735
-0.00708882
-0.00715571
-0.00723185
-0.00731211
-0.0074136
-0.00753811
-0.00766888
-0.00780301
-0.00794915
-0.00810492
-0.00826767
-0.00843175
-0.00859031
-0.00875374
-0.00891937
-0.00908157
-0.0092408
-0.00938537
-0.00952823
-0.00968608
-0.00983535
-0.00998432
-0.0101728
-0.0103935
-0.0106153
-0.010834
-0.0110379
-0.0112058
-0.0113703
-0.0115666
-0.0117734
-0.0119662
-0.0121464
-0.0123208
-0.0125131
-0.0127107
-0.0128752
-0.0130353
-0.0132253
-0.0134142
-0.0135774
-0.0137484
-0.0139305
-0.0141075
-0.0142788
-0.0144584
-0.014642
-0.014822
-0.0150046
-0.0151888
-0.0153777
-0.0155656
-0.0157586
-0.0159542
-0.0161537
-0.0163608
-0.0165683
-0.0167796
-0.0169883
-0.0172028
-0.0174217
-0.0176443
-0.0178764
-0.0181082
-0.0183501
-0.0185903
-0.0188384
-0.019087
-0.0193416
-0.0195995
-0.019861
-0.0201289
-0.0203973
-0.0206737
-0.020947
-0.0212342
-0.0215039
-0.0217701
-0.0220619
0.0101996
0.00737105
0.00146636
-0.00402416
-0.00687408
-0.00720104
-0.00657501
-0.00614225
-0.00612246
-0.00628592
-0.0063708
-0.00633289
-0.00631041
-0.00634989
-0.00642951
-0.00657686
-0.00673446
-0.0068127
-0.00685776
-0.00693705
-0.0070201
-0.00708263
-0.00715069
-0.00722812
-0.00730943
-0.00741124
-0.00753564
-0.00766649
-0.00780093
-0.00794724
-0.00810289
-0.00826546
-0.00842954
-0.00858819
-0.00875163
-0.00891718
-0.00907943
-0.00923908
-0.00938422
-0.00952729
-0.00968482
-0.00983367
-0.00998245
-0.010171
-0.010392
-0.0106139
-0.0108324
-0.0110361
-0.0112043
-0.0113692
-0.0115655
-0.0117721
-0.0119649
-0.0121454
-0.0123199
-0.0125121
-0.0127097
-0.0128744
-0.0130345
-0.0132246
-0.0134135
-0.0135768
-0.0137479
-0.01393
-0.014107
-0.0142784
-0.014458
-0.0146417
-0.0148217
-0.0150044
-0.0151886
-0.0153775
-0.0155654
-0.0157585
-0.015954
-0.0161536
-0.0163607
-0.0165682
-0.0167795
-0.0169883
-0.0172027
-0.0174217
-0.0176442
-0.0178763
-0.0181081
-0.0183501
-0.0185902
-0.0188383
-0.019087
-0.0193416
-0.0195995
-0.0198609
-0.0201289
-0.0203973
-0.0206737
-0.020947
-0.0212342
-0.021504
-0.0217702
-0.0220621
0.00952056
0.00707475
0.00163841
-0.0036629
-0.00659576
-0.00708044
-0.006525
-0.00609842
-0.00607448
-0.0062401
-0.00633169
-0.00630291
-0.00628947
-0.00633598
-0.00641883
-0.00656481
-0.00672002
-0.00679888
-0.0068466
-0.00692787
-0.00701203
-0.00707569
-0.0071451
-0.00722405
-0.0073066
-0.0074088
-0.00753307
-0.007664
-0.00779881
-0.00794531
-0.00810083
-0.00826318
-0.00842719
-0.00858584
-0.00874912
-0.00891442
-0.00907665
-0.00923679
-0.00938276
-0.00952627
-0.00968359
-0.00983204
-0.00998061
-0.0101692
-0.0103904
-0.0106123
-0.0108302
-0.0110337
-0.0112023
-0.0113677
-0.011564
-0.0117703
-0.0119631
-0.0121439
-0.0123187
-0.0125108
-0.0127083
-0.0128731
-0.0130335
-0.0132236
-0.0134125
-0.013576
-0.0137471
-0.0139293
-0.0141064
-0.0142779
-0.0144575
-0.0146412
-0.0148212
-0.015004
-0.0151883
-0.0153772
-0.0155651
-0.0157582
-0.0159538
-0.0161534
-0.0163606