/*--------------------------------*- C++ -*----------------------------------*\
| =========                 |                                                 |
| \\      /  F ield         | OpenFOAM: The Open Source CFD Toolbox           |
|  \\    /   O peration     | Version:  2106                                  |
|   \\  /    A nd           | Website:  www.openfoam.com                      |
|    \\/     M anipulation  |                                                 |
\*---------------------------------------------------------------------------*/
FoamFile
{
    version     2.0;
    format      ascii;
    arch        "LSB;label=32;scalar=64";
    class       surfaceScalarField;
    location    "0.58";
    object      phi;
}
// * * * * * * * * * * * * * * * * * * * * * * * * * * * * * * * * * * * * * //

dimensions      [0 3 -1 0 0 0 0];

oriented        oriented;

internalField   nonuniform List<scalar> 
19000
(
1.1874e-06
2.90757e-07
1.14405e-06
1.17392e-07
1.14763e-06
-5.21314e-07
1.18651e-06
2.61617e-07
1.17335e-06
3.76684e-07
1.12727e-06
-4.48627e-07
1.16688e-06
2.38126e-07
1.13043e-06
-4.2272e-07
1.15982e-06
-8.74323e-08
1.16268e-06
1.86886e-07
1.14973e-06
-1.83952e-07
1.14347e-06
-3.33949e-08
1.14828e-06
3.4399e-08
1.14937e-06
2.35623e-07
1.15478e-06
5.1046e-08
1.15239e-06
8.73658e-08
1.163e-06
-8.67624e-08
1.1604e-06
5.08297e-09
1.16269e-06
-4.35861e-08
1.20194e-08
1.13704e-06
1.24061e-06
2.74407e-07
1.20092e-06
1.57085e-07
1.20528e-06
-5.25675e-07
1.24504e-06
2.21859e-07
1.22849e-06
3.93235e-07
1.18328e-06
-4.03425e-07
1.21794e-06
2.03474e-07
1.18555e-06
-3.90339e-07
1.21049e-06
-1.1237e-07
1.22338e-06
1.73997e-07
1.20689e-06
-1.67462e-07
1.2044e-06
-3.08993e-08
1.20115e-06
3.76462e-08
1.21464e-06
2.22135e-07
1.20758e-06
5.81051e-08
1.22121e-06
7.37345e-08
1.2134e-06
-7.89574e-08
1.23167e-06
-1.31858e-08
1.20859e-06
-2.05002e-08
6.31403e-10
1.21997e-06
1.29459e-06
2.62597e-07
1.2632e-06
1.88478e-07
1.26512e-06
-5.27594e-07
1.30459e-06
1.82385e-07
1.28612e-06
4.11706e-07
1.24565e-06
-3.62955e-07
1.27187e-06
1.77257e-07
1.24945e-06
-3.67917e-07
1.26323e-06
-1.26148e-07
1.28668e-06
1.50548e-07
1.26627e-06
-1.47057e-07
1.26743e-06
-3.20613e-08
1.25689e-06
4.81913e-08
1.27522e-06
2.03801e-07
1.26615e-06
6.71749e-08
1.28039e-06
5.95006e-08
1.27197e-06
-7.054e-08
1.28493e-06
-2.61414e-08
1.27138e-06
-6.95588e-09
4.78716e-09
1.26722e-06
1.35074e-06
2.55955e-07
1.33e-06
2.09224e-07
1.32806e-06
-5.25656e-07
1.36352e-06
1.46921e-07
1.34568e-06
4.29554e-07
1.31274e-06
-3.30019e-07
1.33007e-06
1.59928e-07
1.31866e-06
-3.56506e-07
1.32187e-06
-1.29364e-07
1.34849e-06
1.23935e-07
1.32971e-06
-1.28278e-07
1.32882e-06
-3.11769e-08
1.31886e-06
5.81495e-08
1.33351e-06
1.8916e-07
1.33051e-06
7.01695e-08
1.34032e-06
4.96874e-08
1.33532e-06
-6.55369e-08
1.34291e-06
-3.37309e-08
1.33483e-06
1.12696e-09
1.24342e-08
1.32718e-06
1.4105e-06
2.53812e-07
1.39973e-06
2.19989e-07
1.39465e-06
-5.20576e-07
1.42281e-06
1.18763e-07
1.4078e-06
4.44565e-07
1.38287e-06
-3.05093e-07
1.39326e-06
1.49536e-07
1.38954e-06
-3.52782e-07
1.38746e-06
-1.27279e-07
1.41004e-06
1.01352e-07
1.39666e-06
-1.14898e-07
1.39279e-06
-2.73075e-08
1.38632e-06
6.46197e-08
1.39756e-06
1.77923e-07
1.39871e-06
6.90165e-08
1.40663e-06
4.17711e-08
1.40204e-06
-6.09476e-08
1.40719e-06
-3.88801e-08
1.40056e-06
7.7545e-09
2.05832e-08
1.39241e-06
1.47499e-06
2.54497e-07
1.4714e-06
2.23585e-07
1.46526e-06
-5.14446e-07
1.48481e-06
9.92135e-08
1.47344e-06
4.55943e-07
1.45538e-06
-2.87034e-07
1.46164e-06
1.43274e-07
1.46135e-06
-3.52496e-07
1.45838e-06
-1.24308e-07
1.47431e-06
8.54261e-08
1.46557e-06
-1.0616e-07
1.46143e-06
-2.31669e-08
1.45805e-06
6.80035e-08
1.46806e-06
1.67913e-07
1.47034e-06
6.6731e-08
1.47728e-06
3.48367e-08
1.47203e-06
-5.57001e-08
1.47485e-06
-4.17064e-08
1.4692e-06
1.34141e-08
2.94253e-08
1.46035e-06
1.54464e-06
2.56075e-07
1.54502e-06
2.23204e-07
1.53966e-06
-5.09083e-07
1.55155e-06
8.73217e-08
1.5432e-06
4.64289e-07
1.53043e-06
-2.74259e-07
1.53478e-06
1.38926e-07
1.53498e-06
-3.52696e-07
1.53261e-06
-1.21945e-07
1.54269e-06
7.53546e-08
1.53612e-06
-9.95976e-08
1.53382e-06
-2.08686e-08
1.53306e-06
6.87726e-08
1.54279e-06
1.58179e-07
1.5448e-06
6.47202e-08
1.55045e-06
2.91867e-08
1.54458e-06
-4.98272e-08
1.54488e-06
-4.20079e-08
1.54003e-06
1.82674e-08
3.88973e-08
1.53055e-06
1.61908e-06
2.57127e-07
1.62117e-06
2.21108e-07
1.61707e-06
-5.04979e-07
1.62364e-06
8.0755e-08
1.61735e-06
4.70574e-07
1.60841e-06
-2.65316e-07
1.61201e-06
1.3532e-07
1.61128e-06
-3.5196e-07
1.60928e-06
-1.19951e-07
1.61528e-06
6.93602e-08
1.60921e-06
-9.35325e-08
1.609e-06
-2.06576e-08
1.61047e-06
6.73077e-08
1.62011e-06
1.4854e-07
1.62147e-06
6.33557e-08
1.62558e-06
2.50758e-08
1.61935e-06
-4.35948e-08
1.61723e-06
-3.9892e-08
1.61301e-06
2.24866e-08
4.8745e-08
1.60317e-06
1.69763e-06
2.57068e-07
1.7004e-06
2.18345e-07
1.69682e-06
-5.01407e-07
1.70051e-06
7.70644e-08
1.69588e-06
4.75212e-07
1.68952e-06
-2.58956e-07
1.69278e-06
1.32057e-07
1.69065e-06
-3.4983e-07
1.6885e-06
-1.17803e-07
1.69198e-06
6.58849e-08
1.68587e-06
-8.74253e-08
1.68695e-06
-2.17348e-08
1.68995e-06
6.43019e-08
1.69935e-06
1.39139e-07
1.7002e-06
6.25052e-08
1.70278e-06
2.24978e-08
1.69655e-06
-3.7363e-08
1.69235e-06
-3.56955e-08
1.68862e-06
2.62179e-08
5.86204e-08
1.67875e-06
1.77985e-06
2.55945e-07
1.78303e-06
2.15158e-07
1.77881e-06
-4.97183e-07
1.78135e-06
7.45262e-08
1.77859e-06
4.77964e-07
1.77376e-06
-2.54125e-07
1.77673e-06
1.29094e-07
1.77321e-06
-3.46318e-07
1.77063e-06
-1.15216e-07
1.77275e-06
6.37582e-08
1.76671e-06
-8.13852e-08
1.7681e-06
-2.31193e-08
1.77179e-06
6.06085e-08
1.78064e-06
1.30287e-07
1.7813e-06
6.18461e-08
1.78252e-06
2.12842e-08
1.77663e-06
-3.14797e-08
1.77084e-06
-2.99074e-08
1.76742e-06
2.96447e-08
6.81047e-08
1.75793e-06
1.86565e-06
2.54038e-07
1.8693e-06
2.11508e-07
1.86347e-06
-4.91346e-07
1.86573e-06
7.22673e-08
1.86529e-06
4.78397e-07
1.86118e-06
-2.50009e-07
1.86382e-06
1.26455e-07
1.8591e-06
-3.41602e-07
1.85601e-06
-1.12124e-07
1.85762e-06
6.21496e-08
1.85198e-06
-7.57474e-08
1.8529e-06
-2.4035e-08
1.85658e-06
5.69211e-08
1.86456e-06
1.22311e-07
1.86533e-06
6.10714e-08
1.86541e-06
2.12066e-08
1.86009e-06
-2.61539e-08
1.85324e-06
-2.30645e-08
1.84988e-06
3.30079e-08
7.67684e-08
1.84122e-06
1.95527e-06
2.51604e-07
1.95941e-06
2.07371e-07
1.9515e-06
-4.83437e-07
1.9538e-06
6.99725e-08
1.9559e-06
4.76297e-07
1.95195e-06
-2.46067e-07
1.95428e-06
1.24126e-07
1.94855e-06
-3.3587e-07
1.94504e-06
-1.08613e-07
1.94661e-06
6.05766e-08
1.94171e-06
-7.08418e-08
1.94169e-06
-2.40137e-08
1.94501e-06
5.35991e-08
1.95189e-06
1.15434e-07
1.95297e-06
5.99899e-08
1.95214e-06
2.2034e-08
1.94737e-06
-2.13865e-08
1.93999e-06
-1.56815e-08
1.93642e-06
3.65776e-08
8.42612e-08
1.92893e-06
2.049e-06
2.48789e-07
2.05357e-06
2.02806e-07
2.04358e-06
-4.73444e-07
2.04598e-06
6.75722e-08
2.05049e-06
4.71781e-07
2.04643e-06
-2.42006e-07
2.0485e-06
1.22053e-07
2.04187e-06
-3.29238e-07
2.03814e-06
-1.04885e-07
2.03983e-06
5.8891e-08
2.03588e-06
-6.68902e-08
2.03473e-06
-2.28641e-08
2.03764e-06
5.06837e-08
2.04334e-06
1.09734e-07
2.04479e-06
5.85476e-08
2.04328e-06
2.35409e-08
2.03887e-06
-1.69823e-08
2.0314e-06
-8.21172e-09
2.02744e-06
4.05457e-08
9.04249e-08
2.02127e-06
2.14713e-06
2.45665e-07
2.15203e-06
1.97905e-07
2.1402e-06
-4.61619e-07
2.14269e-06
6.5083e-08
2.14928e-06
4.6519e-07
2.14498e-06
-2.37707e-07
2.14689e-06
1.20148e-07
2.13939e-06
-3.21744e-07
2.13571e-06
-1.01201e-07
2.13741e-06
5.71905e-08
2.13451e-06
-6.39904e-08
2.13223e-06
-2.05835e-08
2.13488e-06
4.80313e-08
2.13947e-06
1.05151e-07
2.1412e-06
5.68122e-08
2.13926e-06
2.54868e-08
2.1349e-06
-1.26259e-08
2.12771e-06
-1.023e-09
2.12328e-06
4.49785e-08
9.52975e-08
2.11841e-06
2.24989e-06
2.42266e-07
2.25504e-06
1.92757e-07
2.24175e-06
-4.4833e-07
2.24427e-06
6.25593e-08
2.25252e-06
4.56937e-07
2.24795e-06
-2.33131e-07
2.2498e-06
1.18292e-07
2.24143e-06
-3.13371e-07
2.23804e-06
-9.7815e-08
2.23954e-06
5.5696e-08
2.23769e-06
-6.21478e-08
2.23438e-06
-1.72683e-08
2.23695e-06
4.54648e-08
2.2406e-06
1.01498e-07
2.24246e-06
5.49522e-08
2.24035e-06
2.7591e-08
2.23569e-06
-7.96594e-09
2.22906e-06
5.61603e-09
2.22424e-06
4.97899e-08
9.90861e-08
2.22046e-06
2.35752e-06
2.3862e-07
2.36285e-06
1.87431e-07
2.34847e-06
-4.33958e-07
2.35096e-06
6.0077e-08
2.36048e-06
4.47417e-07
2.35559e-06
-2.28248e-07
2.35755e-06
1.16333e-07
2.34827e-06
-3.04084e-07
2.34538e-06
-9.49277e-08
2.34642e-06
5.4651e-08
2.34559e-06
-6.13115e-08
2.34138e-06
-1.30639e-08
2.34397e-06
4.28745e-08
2.34697e-06
9.85022e-08
2.34872e-06
5.32023e-08
2.34676e-06
2.95499e-08
2.3415e-06
-2.70354e-09
2.33555e-06
1.15631e-08
2.33057e-06
5.47688e-08
1.02092e-07
2.32757e-06
2.47026e-06
2.34752e-07
2.4757e-06
1.8199e-07
2.4606e-06
-4.18854e-07
2.46297e-06
5.77121e-08
2.47342e-06
4.3696e-07
2.46818e-06
-2.23009e-07
2.47042e-06
1.14098e-07
2.46019e-06
-2.93854e-07
2.45794e-06
-9.26818e-08
2.45833e-06
5.42598e-08
2.45842e-06
-6.13929e-08
2.4535e-06
-8.14935e-09
2.45612e-06
4.02591e-08
2.45879e-06
9.58303e-08
2.46015e-06
5.18369e-08
2.45861e-06
3.10935e-08
2.45266e-06
3.25017e-09
2.44729e-06
1.69273e-08
2.44244e-06
5.96164e-08
1.04607e-07
2.43993e-06
2.58837e-06
2.30676e-07
2.59386e-06
1.76497e-07
2.57832e-06
-4.03313e-07
2.58051e-06
5.55254e-08
2.59165e-06
4.25816e-07
2.58598e-06
-2.17339e-07
2.58866e-06
1.11423e-07
2.57747e-06
-2.82663e-07
2.57596e-06
-9.11735e-08
2.57556e-06
5.46578e-08
2.57644e-06
-6.22671e-08
2.57103e-06
-2.74647e-09
2.57355e-06
3.7738e-08
2.57627e-06
9.31107e-08
2.57697e-06
5.11436e-08
2.576e-06
3.20612e-08
2.56951e-06
9.73682e-09
2.56439e-06
2.20458e-08
2.56001e-06
6.39997e-08
1.06836e-07
2.55778e-06
2.71211e-06
2.26396e-07
2.71759e-06
1.71017e-07
2.70184e-06
-3.87563e-07
2.7038e-06
5.35613e-08
2.71547e-06
4.14149e-07
2.70928e-06
-2.11151e-07
2.71254e-06
1.08168e-07
2.70037e-06
-2.70501e-07
2.69966e-06
-9.0462e-08
2.69842e-06
5.58981e-08
2.69992e-06
-6.37657e-08
2.6943e-06
2.87583e-09
2.69651e-06
3.55245e-08
2.69963e-06
8.99883e-08
2.69942e-06
5.13602e-08
2.69902e-06
3.24598e-08
2.69233e-06
1.64217e-08
2.68706e-06
2.73189e-08
2.6834e-06
6.76614e-08
1.08843e-07
2.68139e-06
2.84175e-06
2.21909e-07
2.84717e-06
1.65603e-07
2.83137e-06
-3.71769e-07
2.83308e-06
5.1859e-08
2.84518e-06
4.02047e-07
2.83839e-06
-2.04361e-07
2.84232e-06
1.04235e-07
2.82919e-06
-2.57369e-07
2.82929e-06
-9.05647e-08
2.82724e-06
5.79473e-08
2.82915e-06
-6.567e-08
2.82362e-06
8.39968e-09
2.82525e-06
3.38998e-08
2.82906e-06
8.61783e-08
2.82785e-06
5.2571e-08
2.8278e-06
3.25096e-08
2.82134e-06
2.28784e-08
2.81562e-06
3.30385e-08
2.81273e-06
7.05486e-08
1.10529e-07
2.81105e-06
2.9776e-06
2.17208e-07
2.9829e-06
1.60302e-07
2.96718e-06
-3.56053e-07
2.96858e-06
5.04651e-08
2.98108e-06
3.89538e-07
2.97362e-06
-1.96897e-07
2.97829e-06
9.95647e-08
2.96421e-06
-2.43289e-07
2.96509e-06
-9.14466e-08
2.96235e-06
6.06865e-08
2.96439e-06
-6.77091e-08
2.95932e-06
1.3472e-08
2.96006e-06
3.31602e-08
2.96472e-06
8.15192e-08
2.96262e-06
5.46707e-08
2.96252e-06
3.26067e-08
2.95671e-06
2.86893e-08
2.95047e-06
3.92783e-08
2.94817e-06
7.28486e-08
1.11682e-07
2.94702e-06
3.11993e-06
2.12282e-07
3.12508e-06
1.55153e-07
3.10954e-06
-3.40514e-07
3.11057e-06
4.94386e-08
3.12349e-06
3.76613e-07
3.1153e-06
-1.88704e-07
3.12073e-06
9.41384e-08
3.10576e-06
-2.28319e-07
3.10732e-06
-9.30114e-08
3.10409e-06
6.39209e-08
3.10594e-06
-6.95635e-08
3.10169e-06
1.77246e-08
3.10129e-06
3.35634e-08
3.1068e-06
7.60058e-08
3.10407e-06
5.73972e-08
3.10348e-06
3.32006e-08
3.0986e-06
3.35666e-08
3.09201e-06
4.58669e-08
3.08993e-06
7.49282e-08
1.12073e-07
3.08954e-06
3.26907e-06
2.07118e-07
3.27403e-06
1.50194e-07
3.25876e-06
-3.25241e-07
3.25935e-06
4.88516e-08
3.27272e-06
3.63244e-07
3.26376e-06
-1.79743e-07
3.26991e-06
8.79799e-08
3.25416e-06
-2.12567e-07
3.25625e-06
-9.50961e-08
3.25278e-06
6.73908e-08
3.2541e-06
-7.08868e-08
3.251e-06
2.08283e-08
3.2493e-06
3.52604e-08
3.2555e-06
6.98077e-08
3.25252e-06
6.03779e-08
3.25102e-06
3.46951e-08
3.24719e-06
3.74021e-08
3.24059e-06
5.24601e-08
3.23834e-06
7.71789e-08
1.11595e-07
3.23882e-06
3.42534e-06
2.01706e-07
3.43007e-06
1.45463e-07
3.41516e-06
-3.10327e-07
3.41523e-06
4.87863e-08
3.42907e-06
3.49398e-07
3.41933e-06
-1.7e-07
3.42615e-06
8.1155e-08
3.40979e-06
-1.96201e-07
3.41217e-06
-9.74739e-08
3.40877e-06
7.0789e-08
3.40921e-06
-7.13313e-08
3.40751e-06
2.25339e-08
3.40451e-06
3.82591e-08
3.41107e-06
6.32497e-08
3.40823e-06
6.32138e-08
3.4056e-06
3.73249e-08
3.40269e-06
4.03131e-08
3.39653e-06
5.86186e-08
3.39381e-06
7.98941e-08
1.10339e-07
3.39507e-06
3.58909e-06
1.9603e-07
3.59354e-06
1.41009e-07
3.57909e-06
-2.95873e-07
3.57854e-06
4.93309e-08
3.5929e-06
3.35043e-07
3.58238e-06
-1.59478e-07
3.58976e-06
7.37722e-08
3.57301e-06
-1.79448e-07
3.57539e-06
-9.98594e-08
3.5724e-06
7.37825e-08
3.57166e-06
-7.05946e-08
3.57146e-06
2.2738e-08
3.56733e-06
4.23888e-08
3.57379e-06
5.67881e-08
3.57148e-06
6.55209e-08
3.56766e-06
4.11464e-08
3.56539e-06
4.2583e-08
3.56009e-06
6.39234e-08
3.55683e-06
8.31497e-08
1.08638e-07
3.55853e-06
3.76066e-06
1.90074e-07
3.76478e-06
1.36886e-07
3.7509e-06
-2.81988e-07
3.74966e-06
5.05751e-08
3.76454e-06
3.2016e-07
3.75327e-06
-1.48209e-07
3.76106e-06
6.5985e-08
3.74421e-06
-1.62602e-07
3.74627e-06
-1.0192e-07
3.74401e-06
7.60474e-08
3.74189e-06
-6.84748e-08
3.7431e-06
2.15267e-08
3.73817e-06
4.73192e-08
3.74404e-06
5.09209e-08
3.74254e-06
6.70186e-08
3.73764e-06
4.6046e-08
3.73566e-06
4.45619e-08
3.73152e-06
6.80624e-08
3.72788e-06
8.67891e-08
1.06981e-07
3.72954e-06
3.94044e-06
1.8382e-07
3.94417e-06
1.3316e-07
3.93097e-06
-2.68789e-07
3.92894e-06
5.25998e-08
3.94435e-06
3.04758e-07
3.93241e-06
-1.3627e-07
3.94038e-06
5.80058e-08
3.92379e-06
-1.46011e-07
3.92518e-06
-1.03312e-07
3.92392e-06
7.73151e-08
3.92035e-06
-6.49104e-08
3.92271e-06
1.91737e-08
3.9174e-06
5.26282e-08
3.92221e-06
4.61023e-08
3.92166e-06
6.75756e-08
3.91595e-06
5.1757e-08
3.91391e-06
4.65965e-08
3.91109e-06
7.08892e-08
3.90742e-06
9.04582e-08
1.05861e-07
3.90854e-06
4.12882e-06
1.77247e-07
4.13208e-06
1.29905e-07
4.11968e-06
-2.56394e-07
4.11682e-06
5.54644e-08
4.13268e-06
2.88892e-07
4.12021e-06
-1.23795e-07
4.1281e-06
5.01141e-08
4.11216e-06
-1.30065e-07
4.11255e-06
-1.0371e-07
4.11244e-06
7.74298e-08
4.10753e-06
-5.99974e-08
4.11063e-06
1.6067e-08
4.10534e-06
5.79199e-08
4.10879e-06
4.26527e-08
4.10919e-06
6.71787e-08
4.10301e-06
5.79323e-08
4.10063e-06
4.8978e-08
4.09907e-06
7.24513e-08
4.09582e-06
9.37043e-08
1.05591e-07
4.09609e-06
4.32621e-06
1.70335e-07
4.32892e-06
1.27201e-07
4.31744e-06
-2.44917e-07
4.31372e-06
5.91895e-08
4.32993e-06
2.72679e-07
4.31713e-06
-1.10992e-07
4.3246e-06
4.26437e-08
4.30969e-06
-1.15157e-07
4.30885e-06
-1.02876e-07
4.30989e-06
7.63983e-08
4.30388e-06
-5.39907e-08
4.30731e-06
1.26389e-08
4.30231e-06
6.2914e-08
4.30427e-06
4.06997e-08
4.3055e-06
6.59426e-08
4.29928e-06
6.4154e-08
4.29632e-06
5.19392e-08
4.2958e-06
7.29739e-08
4.29343e-06
9.60744e-08
1.06182e-07
4.29284e-06
4.53305e-06
1.6306e-07
4.53512e-06
1.25129e-07
4.52466e-06
-2.34455e-07
4.52011e-06
6.3737e-08
4.53648e-06
2.56314e-07
4.52362e-06
-9.81364e-08
4.5303e-06
3.59688e-08
4.51676e-06
-1.01622e-07
4.5146e-06
-1.00716e-07
4.51658e-06
7.4422e-08
4.50984e-06
-4.72485e-08
4.51321e-06
9.26011e-09
4.50866e-06
6.74676e-08
4.50913e-06
4.02318e-08
4.51105e-06
6.4025e-08
4.50518e-06
7.00222e-08
4.50151e-06
5.56098e-08
4.50168e-06
7.27974e-08
4.50049e-06
9.7268e-08
1.07315e-07
4.49936e-06
4.74977e-06
1.554e-07
4.75113e-06
1.2377e-07
4.74176e-06
-2.2508e-07
4.73651e-06
6.89893e-08
4.75273e-06
2.40088e-07
4.74018e-06
-8.55823e-08
4.74567e-06
3.04759e-08
4.73373e-06
-8.96796e-08
4.73035e-06
-9.73347e-08
4.73289e-06
7.18755e-08
4.72578e-06
-4.01312e-08
4.72888e-06
6.15848e-09
4.72481e-06
7.15326e-08
4.72385e-06
4.11959e-08
4.72631e-06
6.15669e-08
4.72113e-06
7.51976e-08
4.71676e-06
5.99826e-08
4.71721e-06
7.23425e-08
4.7173e-06
9.71814e-08
1.08471e-07
4.71614e-06
4.97686e-06
1.47337e-07
4.97744e-06
1.23188e-07
4.96918e-06
-2.16816e-07
4.96344e-06
7.47327e-08
4.97914e-06
2.24383e-07
4.96729e-06
-7.37348e-08
4.97126e-06
2.65086e-08
4.96096e-06
-7.93753e-08
4.95663e-06
-9.30141e-08
4.95931e-06
6.91961e-08
4.95205e-06
-3.28643e-08
4.95482e-06
3.38075e-09
4.95124e-06
7.51207e-08
4.94891e-06
4.35271e-08
4.95176e-06
5.87166e-08
4.94759e-06
7.93659e-08
4.94261e-06
6.49578e-08
4.94297e-06
7.19816e-08
4.94419e-06
9.59611e-08
1.09089e-07
4.94358e-06
5.2148e-06
1.38858e-07
5.21455e-06
1.23428e-07
5.20737e-06
-2.09631e-07
5.20146e-06
8.06453e-08
5.21616e-06
2.09678e-07
5.20546e-06
-6.30319e-08
5.20766e-06
2.43133e-08
5.19881e-06
-7.05321e-08
5.19403e-06
-8.82285e-08
5.19639e-06
6.68276e-08
5.18904e-06
-2.55047e-08
5.19155e-06
8.61378e-10
5.18847e-06
7.82103e-08
5.1848e-06
4.71909e-08
5.18785e-06
5.56629e-08
5.185e-06
8.22174e-08
5.17961e-06
7.03469e-08
5.17957e-06
7.2022e-08
5.18162e-06
9.39146e-08
1.08759e-07
5.18195e-06
5.46409e-06
1.29958e-07
5.46301e-06
1.2451e-07
5.4568e-06
-2.03423e-07
5.45115e-06
8.62943e-08
5.4643e-06
1.96526e-07
5.45518e-06
-5.39044e-08
5.45549e-06
2.40015e-08
5.44773e-06
-6.27741e-08
5.44302e-06
-8.35189e-08
5.44479e-06
6.50586e-08
5.43723e-06
-1.79429e-08
5.43952e-06
-1.43221e-09
5.43708e-06
8.06551e-08
5.43217e-06
5.20939e-08
5.43511e-06
5.27287e-08
5.43381e-06
8.35177e-08
5.42831e-06
7.58424e-08
5.42764e-06
7.26918e-08
5.43015e-06
9.14068e-08
1.0733e-07
5.43158e-06
5.72527e-06
1.20644e-07
5.72336e-06
1.26418e-07
5.71795e-06
-1.98014e-07
5.71309e-06
9.11556e-08
5.72411e-06
1.85506e-07
5.71691e-06
-4.67042e-08
5.71541e-06
2.55024e-08
5.70819e-06
-5.55503e-08
5.70404e-06
-7.93671e-08
5.70515e-06
6.39431e-08
5.69714e-06
-9.93035e-09
5.6992e-06
-3.49677e-09
5.69768e-06
8.2178e-08
5.6917e-06
5.80709e-08
5.69407e-06
5.03606e-08
5.69443e-06
8.31595e-08
5.68925e-06
8.10272e-08
5.6878e-06
7.41389e-08
5.69043e-06
8.87733e-08
1.04899e-07
5.69286e-06
5.9989e-06
1.1094e-07
5.99622e-06
1.29092e-07
5.99135e-06
-1.93139e-07
5.98785e-06
9.46495e-08
5.99621e-06
1.77155e-07
5.99109e-06
-4.15896e-08
5.98817e-06
2.84197e-08
5.98078e-06
-4.81539e-08
5.97746e-06
-7.60537e-08
5.97818e-06
6.32245e-08
5.96936e-06
-1.10458e-09
5.97114e-06
-5.28357e-09
5.97091e-06
8.24071e-08
5.96411e-06
6.48722e-08
5.96541e-06
4.90585e-08
5.96732e-06
8.12571e-08
5.96294e-06
8.54076e-08
5.96072e-06
7.63606e-08
5.96313e-06
8.63555e-08
1.01672e-07
5.96636e-06
6.28554e-06
1.00888e-07
6.2822e-06
1.32433e-07
6.27753e-06
-1.88467e-07
6.27597e-06
9.6202e-08
6.28128e-06
1.71844e-07
6.27815e-06
-3.84571e-08
6.27452e-06
3.2053e-08
6.26616e-06
-3.97992e-08
6.26371e-06
-7.3604e-08
6.2645e-06
6.2442e-08
6.25464e-06
8.75e-09
6.25578e-06
-6.42306e-09
6.25727e-06
8.09167e-08
6.25009e-06
7.20508e-08
6.24989e-06
4.92606e-08
6.25299e-06
7.81555e-08
6.24987e-06
8.85306e-08
6.24707e-06
7.91608e-08
6.24895e-06
8.44721e-08
9.79098e-08
6.25272e-06
6.58581e-06
9.05517e-08
6.58193e-06
1.36304e-07
6.57707e-06
-1.83606e-07
6.57797e-06
9.53044e-08
6.58018e-06
1.69635e-07
6.57857e-06
-3.68467e-08
6.57507e-06
3.55487e-08
6.56513e-06
-2.98511e-08
6.56325e-06
-7.17319e-08
6.56465e-06
6.10471e-08
6.55381e-06
1.95889e-08
6.55383e-06
-6.44222e-09
6.55711e-06
7.76367e-08
6.55029e-06
7.887e-08
6.54834e-06
5.12143e-08
6.55207e-06
7.44228e-08
6.55052e-06
9.00784e-08
6.54752e-06
8.21621e-08
6.54864e-06
8.33483e-08
9.39391e-08
6.55261e-06
6.90032e-06
8.00193e-08
6.89608e-06
1.40541e-07
6.89062e-06
-1.78139e-07
6.89435e-06
9.15706e-08
6.89377e-06
1.70216e-07
6.89276e-06
-3.58332e-08
6.89034e-06
3.79697e-08
6.87859e-06
-1.8106e-08
6.87659e-06
-6.97323e-08
6.8792e-06
5.84389e-08
6.8678e-06
3.09915e-08
6.86602e-06
-4.66424e-09
6.87095e-06
7.27036e-08
6.86521e-06
8.46159e-08
6.86161e-06
5.481e-08
6.86527e-06
7.07604e-08
6.86539e-06
8.99642e-08
6.86266e-06
8.48908e-08
6.863e-06
8.30029e-08
9.01886e-08
6.86676e-06
7.22975e-06
6.94046e-08
7.22533e-06
1.44961e-07
7.21886e-06
-1.71664e-07
7.22562e-06
8.48056e-08
7.22296e-06
1.72874e-07
7.22139e-06
-3.42631e-08
7.2208e-06
3.85624e-08
7.20754e-06
-4.8474e-09
7.20439e-06
-6.6583e-08
7.20867e-06
5.41619e-08
7.19743e-06
4.22311e-08
7.19339e-06
-6.24598e-10
7.19939e-06
6.67037e-08
7.19534e-06
8.86676e-08
7.19048e-06
5.96668e-08
7.19347e-06
6.77752e-08
7.19505e-06
8.83831e-08
7.19302e-06
8.69217e-08
7.19281e-06
8.32113e-08
8.70675e-08
7.19593e-06
7.57478e-06
5.88477e-08
7.57043e-06
1.4931e-07
7.56255e-06
-1.63776e-07
7.57231e-06
7.50441e-08
7.5686e-06
1.7658e-07
7.56531e-06
-3.09751e-08
7.56695e-06
3.69251e-08
7.55289e-06
9.21435e-09
7.54765e-06
-6.13472e-08
7.55348e-06
4.83383e-08
7.54333e-06
5.23757e-08
7.53702e-06
5.68969e-09
7.54318e-06
6.05451e-08
7.54118e-06
9.06659e-08
7.53568e-06
6.51633e-08
7.53755e-06
6.59076e-08
7.54021e-06
8.57239e-08
7.53916e-06
8.79699e-08
7.53875e-06
8.36189e-08
8.47742e-08
7.54105e-06
7.93614e-06
4.85199e-08
7.93222e-06
1.5323e-07
7.92253e-06
-1.54082e-07
7.93502e-06
6.25525e-08
7.93143e-06
1.80168e-07
7.92542e-06
-2.49671e-08
7.92931e-06
3.30339e-08
7.91546e-06
2.30628e-08
7.90733e-06
-5.32171e-08
7.91421e-06
4.14607e-08
7.906e-06
6.0587e-08
7.89788e-06
1.38137e-08
7.90324e-06
5.51777e-08
7.9033e-06
9.0607e-08
7.89784e-06
7.06226e-08
7.89844e-06
6.53063e-08
7.90168e-06
8.24889e-08
7.90171e-06
8.79383e-08
7.90146e-06
8.38729e-08
8.31907e-08
7.90304e-06
8.31459e-06
3.86158e-08
8.31152e-06
1.56294e-07
8.29971e-06
-1.42266e-07
8.31442e-06
4.78385e-08
8.31214e-06
1.82451e-07
8.30277e-06
-1.56059e-08
8.30837e-06
2.74417e-08
8.29591e-06
3.55232e-08
8.28468e-06
-4.19868e-08
8.29156e-06
3.45775e-08
8.2859e-06
6.62422e-08
8.27677e-06
2.29508e-08
8.28067e-06
5.12743e-08
8.28241e-06
8.8867e-08
8.2776e-06
7.54319e-08
8.27704e-06
6.58662e-08
8.28037e-06
7.91581e-08
8.2814e-06
8.6914e-08
8.28153e-06
8.37436e-08
8.19554e-08
8.28276e-06
8.71093e-06
2.93503e-08
8.7092e-06
1.58024e-07
8.69504e-06
-1.28109e-07
8.71126e-06
3.16165e-08
8.71135e-06
1.82362e-07
8.69858e-06
-2.83452e-09
8.70472e-06
2.13001e-08
8.69477e-06
4.5474e-08
8.681e-06
-2.82138e-08
8.68647e-06
2.91089e-08
8.68363e-06
6.90753e-08
8.67436e-06
3.22206e-08
8.67652e-06
4.91209e-08
8.67936e-06
8.6027e-08
8.67559e-06
7.91956e-08
8.67417e-06
6.72882e-08
8.67724e-06
7.60849e-08
8.67906e-06
8.51035e-08
8.67966e-06
8.31423e-08
8.06979e-08
8.68091e-06
9.12604e-06
2.09334e-08
9.12608e-06
1.57984e-07
9.10956e-06
-1.11589e-07
9.12639e-06
1.47803e-08
9.12965e-06
1.79103e-07
9.114e-06
1.2821e-08
9.11933e-06
1.59641e-08
9.11254e-06
5.22636e-08
9.09724e-06
-1.29108e-08
9.10029e-06
2.60588e-08
9.09984e-06
6.95201e-08
9.09127e-06
4.07917e-08
9.09174e-06
4.86509e-08
9.09514e-06
8.26289e-08
9.09255e-06
8.1782e-08
9.09065e-06
6.919e-08
9.09325e-06
7.34882e-08
9.09566e-06
8.26942e-08
9.09667e-06
8.21321e-08
7.9211e-08
9.09816e-06
9.56083e-06
1.35611e-08
9.56301e-06
1.55811e-07
9.54432e-06
-9.29067e-08
9.56075e-06
-1.64263e-09
9.56755e-06
1.72299e-07
9.55012e-06
3.02552e-08
9.55328e-06
1.27998e-08
9.54977e-06
5.57693e-08
9.53424e-06
2.62477e-09
9.53441e-06
2.58889e-08
9.53539e-06
6.85385e-08
9.52813e-06
4.80552e-08
9.52732e-06
4.94546e-08
9.53074e-06
7.92133e-08
9.52937e-06
8.31522e-08
9.52728e-06
7.12802e-08
9.52929e-06
7.14806e-08
9.53218e-06
7.97968e-08
9.53351e-06
8.08104e-08
7.74955e-08
9.53522e-06
1.00163e-05
7.39516e-09
1.00208e-05
1.51279e-07
1.00005e-05
-7.25307e-08
1.00153e-05
-1.64993e-08
1.00257e-05
1.61905e-07
1.00079e-05
4.8036e-08
1.00079e-05
1.28466e-08
1.00072e-05
5.6438e-08
9.99269e-06
1.71446e-08
9.99005e-06
2.85334e-08
9.99152e-06
6.70619e-08
9.98572e-06
5.38609e-08
9.98407e-06
5.1098e-08
9.98716e-06
7.61258e-08
9.98697e-06
8.33469e-08
9.98496e-06
7.32893e-08
9.98633e-06
7.01094e-08
9.98954e-06
7.65885e-08
9.99128e-06
7.907e-08
7.57426e-08
9.99303e-06
1.04935e-05
2.53815e-09
1.05004e-05
1.4434e-07
1.04791e-05
-5.11596e-08
1.04912e-05
-2.86147e-08
1.05049e-05
1.48168e-07
1.04882e-05
6.47511e-08
1.04847e-05
1.63936e-08
1.04858e-05
5.52855e-08
1.04732e-05
2.97544e-08
1.04684e-05
3.3338e-08
1.04695e-05
6.59579e-08
1.0465e-05
5.83415e-08
1.04629e-05
5.32282e-08
1.04655e-05
7.34917e-08
1.04662e-05
8.26614e-08
1.04647e-05
7.48176e-08
1.04654e-05
6.9353e-08
1.04686e-05
7.33735e-08
1.0471e-05
7.66813e-08
7.40781e-08
1.04727e-05
1.09935e-05
-9.69571e-10
1.10027e-05
1.35152e-07
1.09812e-05
-2.96631e-08
1.09896e-05
-3.69651e-08
1.10061e-05
1.3164e-07
1.09918e-05
7.90693e-08
1.09849e-05
2.32255e-08
1.09867e-05
5.35466e-08
1.09766e-05
3.98585e-08
1.09704e-05
3.94893e-08
1.09707e-05
6.57131e-08
1.09671e-05
6.18729e-08
1.09648e-05
5.56105e-08
1.09669e-05
7.13203e-08
1.09681e-05
8.14476e-08
1.09673e-05
7.56144e-08
1.09677e-05
6.89953e-08
1.09707e-05
7.04227e-08
1.09736e-05
7.37374e-08
7.22192e-08
1.09755e-05
1.15175e-05
-3.1544e-09
1.15287e-05
1.24046e-07
1.15079e-05
-8.9498e-09
1.15119e-05
-4.09087e-08
1.15304e-05
1.13159e-07
1.15194e-05
9e-08
1.151e-05
3.27064e-08
1.15113e-05
5.22465e-08
1.15037e-05
4.74314e-08
1.14969e-05
4.62379e-08
1.14964e-05
6.62903e-08
1.14933e-05
6.49067e-08
1.14909e-05
5.80518e-08
1.14924e-05
6.97633e-08
1.14941e-05
7.98358e-08
1.14939e-05
7.58023e-08
1.14942e-05
6.86516e-08
1.14967e-05
6.78954e-08
1.14999e-05
7.05444e-08
6.99144e-08
1.15022e-05
1.20668e-05
-4.1241e-09
1.20793e-05
1.11571e-07
1.20603e-05
1.00409e-08
1.20597e-05
-4.03613e-08
1.20789e-05
9.40004e-08
1.20719e-05
9.69657e-08
1.20609e-05
4.37763e-08
1.2061e-05
5.21028e-08
1.20555e-05
5.29417e-08
1.20489e-05
5.28097e-08
1.20475e-05
6.76861e-08
1.2045e-05
6.74309e-08
1.20424e-05
6.06231e-08
1.20434e-05
6.88286e-08
1.20451e-05
7.80539e-08
1.20454e-05
7.55472e-08
1.20459e-05
6.81345e-08
1.20481e-05
6.56712e-08
1.20513e-05
6.74086e-08
6.71665e-08
1.2054e-05
1.26425e-05
-4.05118e-09
1.26557e-05
9.83907e-08
1.26393e-05
2.64814e-08
1.26346e-05
-3.57067e-08
1.2653e-05
7.55702e-08
1.26501e-05
9.98769e-08
1.26387e-05
5.52097e-08
1.26373e-05
5.35172e-08
1.26334e-05
5.68637e-08
1.26274e-05
5.87998e-08
1.26253e-05
6.97114e-08
1.26233e-05
6.94774e-08
1.26207e-05
6.32193e-08
1.26211e-05
6.84503e-08
1.26226e-05
7.64883e-08
1.26234e-05
7.48297e-08
1.26239e-05
6.75695e-08
1.26261e-05
6.35275e-08
1.26291e-05
6.43812e-08
6.42055e-08
1.26321e-05
1.3246e-05
-3.14816e-09
1.32593e-05
8.51674e-08
1.32459e-05
3.9811e-08
1.32379e-05
-2.77293e-08
1.32544e-05
5.91495e-08
1.32552e-05
9.9049e-08
1.32445e-05
6.5929e-08
1.32416e-05
5.64292e-08
1.32387e-05
5.97616e-08
1.32334e-05
6.404e-08
1.32311e-05
7.20464e-08
1.32293e-05
7.1228e-08
1.32271e-05
6.5463e-08
1.32269e-05
6.86416e-08
1.32281e-05
7.5276e-08
1.3229e-05
7.39011e-08
1.32297e-05
6.69066e-08
1.32317e-05
6.14947e-08
1.32348e-05
6.12831e-08
6.1227e-08
1.32378e-05
1.38787e-05
-1.64458e-09
1.38913e-05
7.24941e-08
1.38813e-05
4.98037e-08
1.38711e-05
-1.74996e-08
1.38845e-05
4.57459e-08
1.38883e-05
9.52822e-08
1.38792e-05
7.49912e-08
1.38753e-05
6.03946e-08
1.38728e-05
6.2217e-08
1.38685e-05
6.83743e-08
1.38659e-05
7.45971e-08
1.38644e-05
7.27103e-08
1.38628e-05
6.71231e-08
1.38623e-05
6.91346e-08
1.38631e-05
7.44421e-08
1.38639e-05
7.30885e-08
1.38648e-05
6.60348e-08
1.38666e-05
5.96747e-08
1.38699e-05
5.8001e-08
5.82155e-08
1.38729e-05
1.45418e-05
2.31407e-10
1.45534e-05
6.08809e-08
1.45467e-05
5.65365e-08
1.45353e-05
-6.17338e-09
1.45452e-05
3.58946e-08
1.45509e-05
8.95557e-08
1.45441e-05
8.18226e-08
1.45396e-05
6.49259e-08
1.45374e-05
6.44117e-08
1.45339e-05
7.1877e-08
1.45312e-05
7.72553e-08
1.453e-05
7.39539e-08
1.45289e-05
6.8226e-08
1.45286e-05
6.93417e-08
1.45291e-05
7.40321e-08
1.45296e-05
7.25102e-08
1.45305e-05
6.51816e-08
1.45322e-05
5.80055e-08
1.45354e-05
5.47709e-08
5.49033e-08
1.45387e-05
1.52368e-05
2.28311e-09
1.5247e-05
5.07065e-08
1.52432e-05
6.02957e-08
1.52319e-05
5.20273e-09
1.52381e-05
2.96918e-08
1.52447e-05
8.29065e-08
1.52403e-05
8.62156e-08
1.52358e-05
6.94667e-08
1.52339e-05
6.63413e-08
1.52311e-05
7.46662e-08
1.52285e-05
7.98631e-08
1.52272e-05
7.51984e-08
1.52267e-05
6.87226e-08
1.52271e-05
6.89554e-08
1.52276e-05
7.35526e-08
1.52278e-05
7.22895e-08
1.52284e-05
6.45715e-08
1.52299e-05
5.6506e-08
1.52328e-05
5.18613e-08
5.12844e-08
1.52364e-05
1.59653e-05
4.3623e-09
1.59738e-05
4.21616e-08
1.59725e-05
6.15932e-08
1.59619e-05
1.57729e-08
1.59648e-05
2.67717e-08
1.59716e-05
7.61815e-08
1.59693e-05
8.84621e-08
1.59653e-05
7.35228e-08
1.59636e-05
6.79667e-08
1.59616e-05
7.67081e-08
1.59592e-05
8.22838e-08
1.59578e-05
7.658e-08
1.59578e-05
6.87254e-08
1.59588e-05
6.79675e-08
1.596e-05
7.23254e-08
1.596e-05
7.22639e-08
1.59603e-05
6.43034e-08
1.59615e-05
5.53586e-08
1.5964e-05
4.93066e-08
4.77215e-08
1.59676e-05
1.67286e-05
6.37626e-09
1.67355e-05
3.52626e-08
1.67361e-05
6.09816e-08
1.67268e-05
2.50942e-08
1.67272e-05
2.6391e-08
1.67333e-05
7.00552e-08
1.67327e-05
8.90464e-08
1.67295e-05
7.67726e-08
1.67283e-05
6.91653e-08
1.67271e-05
7.78437e-08
1.67249e-05
8.44913e-08
1.67234e-05
7.80703e-08
1.67235e-05
6.86011e-08
1.67251e-05
6.63786e-08
1.67273e-05
7.01526e-08
1.67278e-05
7.17242e-08
1.67276e-05
6.45217e-08
1.67283e-05
5.46532e-08
1.67303e-05
4.72968e-08
4.442e-08
1.67336e-05
1.75285e-05
8.27697e-09
1.75339e-05
2.98467e-08
1.75357e-05
5.91225e-08
1.75279e-05
3.29208e-08
1.75266e-05
2.77159e-08
1.75317e-05
6.49635e-08
1.75324e-05
8.83644e-08
1.75299e-05
7.92481e-08
1.75291e-05
6.99091e-08
1.75291e-05
7.78947e-08
1.75273e-05
8.62475e-08
1.75256e-05
7.97614e-08
1.75257e-05
6.85435e-08
1.75276e-05
6.44364e-08
1.75306e-05
6.72322e-08
1.75322e-05
7.00647e-08
1.75318e-05
6.48952e-08
1.75319e-05
5.45856e-08
1.75332e-05
4.60504e-08
4.16491e-08
1.75359e-05
1.83666e-05
1.00295e-08
1.83707e-05
2.57054e-08
1.83733e-05
5.65787e-08
1.83669e-05
3.92556e-08
1.83646e-05
3.00222e-08
1.83686e-05
6.09975e-08
1.83701e-05
8.68492e-08
1.83683e-05
8.10594e-08
1.8368e-05
7.02277e-08
1.8369e-05
7.68392e-08
1.83683e-05
8.70178e-08
1.83663e-05
8.17694e-08
1.8366e-05
6.87741e-08
1.83679e-05
6.25514e-08
1.83713e-05
6.38757e-08
1.83741e-05
6.72569e-08
1.83743e-05
6.46884e-08
1.83736e-05
5.52357e-08
1.83742e-05
4.5483e-08
3.97601e-08
1.83761e-05
1.92448e-05
1.16094e-08
1.92478e-05
2.26769e-08
1.92507e-05
5.36779e-08
1.92458e-05
4.4241e-08
1.92429e-05
3.29035e-08
1.9246e-05
5.78882e-08
1.9248e-05
8.4832e-08
1.92467e-05
8.23619e-08
1.92466e-05
7.03424e-08
1.92486e-05
7.48357e-08