/*--------------------------------*- C++ -*----------------------------------*\
| =========                 |                                                 |
| \\      /  F ield         | OpenFOAM: The Open Source CFD Toolbox           |
|  \\    /   O peration     | Version:  2106                                  |
|   \\  /    A nd           | Website:  www.openfoam.com                      |
|    \\/     M anipulation  |                                                 |
\*---------------------------------------------------------------------------*/
FoamFile
{
    version     2.0;
    format      ascii;
    arch        "LSB;label=32;scalar=64";
    class       surfaceScalarField;
    location    "0.605";
    object      phi;
}
// * * * * * * * * * * * * * * * * * * * * * * * * * * * * * * * * * * * * * //

dimensions      [0 3 -1 0 0 0 0];

oriented        oriented;

internalField   nonuniform List<scalar> 
19000
(
1.17363e-06
-2.5793e-07
1.19352e-06
9.47439e-08
1.19569e-06
7.32447e-07
1.11538e-06
-3.81744e-07
1.15854e-06
-1.66466e-07
1.17054e-06
2.34951e-07
1.15491e-06
-1.59836e-07
1.16515e-06
3.40292e-07
1.16404e-06
4.69298e-08
1.14999e-06
2.48119e-07
1.15045e-06
-3.46932e-07
1.14733e-06
7.98524e-09
1.16378e-06
-1.95261e-07
1.16411e-06
4.87238e-08
1.17482e-06
-8.0515e-08
1.16625e-06
-1.16647e-08
1.16964e-06
-5.55502e-08
1.15901e-06
-3.8275e-08
1.15466e-06
-2.92881e-08
3.82147e-08
1.12673e-06
1.23017e-06
-2.63835e-07
1.25109e-06
7.38229e-08
1.25004e-06
7.33494e-07
1.17159e-06
-3.03292e-07
1.21323e-06
-2.08102e-07
1.23033e-06
2.17848e-07
1.21271e-06
-1.42216e-07
1.22614e-06
3.26858e-07
1.22126e-06
5.18174e-08
1.21463e-06
2.54748e-07
1.21049e-06
-3.42797e-07
1.21226e-06
6.22061e-09
1.22106e-06
-2.04068e-07
1.23074e-06
3.90433e-08
1.22997e-06
-7.97424e-08
1.23553e-06
-1.72238e-08
1.2208e-06
-4.08188e-08
1.2302e-06
-4.7678e-08
1.20016e-06
7.52092e-10
2.8778e-08
1.2096e-06
1.28824e-06
-2.69293e-07
1.31064e-06
5.14276e-08
1.30627e-06
7.37864e-07
1.2369e-06
-2.33924e-07
1.26963e-06
-2.40837e-07
1.29479e-06
1.92686e-07
1.27297e-06
-1.2039e-07
1.2886e-06
3.1123e-07
1.27898e-06
6.14348e-08
1.28026e-06
2.53469e-07
1.26881e-06
-3.31348e-07
1.27615e-06
-1.11686e-09
1.27599e-06
-2.03917e-07
1.2916e-06
2.34382e-08
1.28509e-06
-7.32333e-08
1.29406e-06
-2.61888e-08
1.27874e-06
-2.5507e-08
1.28297e-06
-5.19092e-08
1.2644e-06
1.93239e-08
3.73506e-08
1.25583e-06
1.34781e-06
-2.73005e-07
1.37059e-06
2.8657e-08
1.36433e-06
7.44122e-07
1.30928e-06
-1.78879e-07
1.32976e-06
-2.61314e-07
1.3599e-06
1.62543e-07
1.33601e-06
-9.64975e-08
1.34874e-06
2.98503e-07
1.33829e-06
7.1883e-08
1.34255e-06
2.49211e-07
1.32805e-06
-3.16854e-07
1.33524e-06
-8.30671e-09
1.33216e-06
-2.00832e-07
1.34615e-06
9.44362e-09
1.34174e-06
-6.88181e-08
1.34807e-06
-3.25236e-08
1.3382e-06
-1.56325e-08
1.33687e-06
-5.05788e-08
1.32559e-06
3.06074e-08
4.96647e-08
1.31327e-06
1.40964e-06
-2.74295e-07
1.43058e-06
7.7212e-09
1.42437e-06
7.50335e-07
1.38518e-06
-1.39697e-07
1.39452e-06
-2.70652e-07
1.42408e-06
1.32981e-07
1.40235e-06
-7.47622e-08
1.40904e-06
2.91808e-07
1.40074e-06
8.01889e-08
1.40495e-06
2.44998e-07
1.39118e-06
-3.03085e-07
1.39623e-06
-1.33531e-08
1.39265e-06
-1.97259e-07
1.40376e-06
-1.66155e-09
1.4013e-06
-6.63571e-08
1.40638e-06
-3.76027e-08
1.39927e-06
-8.52688e-09
1.39648e-06
-4.77863e-08
1.38724e-06
3.98448e-08
6.18747e-08
1.37503e-06
1.4748e-06
-2.73421e-07
1.49172e-06
-9.19251e-09
1.48715e-06
7.54905e-07
1.4621e-06
-1.14646e-07
1.46421e-06
-2.72767e-07
1.48869e-06
1.085e-07
1.47194e-06
-5.80083e-08
1.47328e-06
2.90465e-07
1.46737e-06
8.6103e-08
1.47117e-06
2.41198e-07
1.45916e-06
-2.9108e-07
1.46316e-06
-1.73481e-08
1.45894e-06
-1.93043e-07
1.468e-06
-1.0715e-08
1.46549e-06
-6.38508e-08
1.47012e-06
-4.22375e-08
1.46421e-06
-2.61576e-09
1.46089e-06
-4.44592e-08
1.45323e-06
4.75007e-08
7.41371e-08
1.44097e-06
1.54405e-06
-2.71253e-07
1.55582e-06
-2.09686e-08
1.55355e-06
7.57176e-07
1.53934e-06
-1.00435e-07
1.53827e-06
-2.71697e-07
1.55606e-06
9.07125e-08
1.54432e-06
-4.62698e-08
1.54308e-06
2.91709e-07
1.53853e-06
9.06529e-08
1.54237e-06
2.37353e-07
1.53167e-06
-2.80378e-07
1.53597e-06
-2.1647e-08
1.5308e-06
-1.87874e-07
1.5384e-06
-1.83135e-08
1.53472e-06
-6.01707e-08
1.53856e-06
-4.60793e-08
1.53335e-06
2.59036e-09
1.52933e-06
-4.04297e-08
1.52363e-06
5.31919e-08
8.6147e-08
1.51162e-06
1.61751e-06
-2.6863e-07
1.62447e-06
-2.79336e-08
1.62431e-06
7.57339e-07
1.61751e-06
-9.36335e-08
1.61574e-06
-2.69929e-07
1.62764e-06
7.88088e-08
1.61933e-06
-3.79619e-08
1.61802e-06
2.93025e-07
1.61411e-06
9.45592e-08
1.61829e-06
2.3317e-07
1.60813e-06
-2.70215e-07
1.61328e-06
-2.68006e-08
1.60717e-06
-1.81761e-07
1.61366e-06
-2.48055e-08
1.60854e-06
-5.50488e-08
1.61115e-06
-4.86831e-08
1.60644e-06
7.29784e-09
1.60144e-06
-3.54271e-08
1.59781e-06
5.68143e-08
9.73808e-08
1.58658e-06
1.69487e-06
-2.65924e-07
1.69836e-06
-3.14295e-08
1.69989e-06
7.55818e-07
1.69759e-06
-9.13356e-08
1.69587e-06
-2.68214e-07
1.7037e-06
7.09764e-08
1.69725e-06
-3.15039e-08
1.69717e-06
2.93103e-07
1.69377e-06
9.79619e-08
1.69842e-06
2.28515e-07
1.68817e-06
-2.5996e-07
1.69406e-06
-3.26933e-08
1.68711e-06
-1.74807e-07
1.69277e-06
-3.04731e-08
1.6865e-06
-4.87729e-08
1.6877e-06
-4.98809e-08
1.68347e-06
1.15184e-08
1.6773e-06
-2.92557e-08
1.67546e-06
5.86599e-08
1.07481e-07
1.66536e-06
1.77585e-06
-2.63053e-07
1.77743e-06
-3.30046e-08
1.78049e-06
7.52758e-07
1.7805e-06
-9.13525e-08
1.77848e-06
-2.66191e-07
1.78394e-06
6.55135e-08
1.77844e-06
-2.60043e-08
1.77996e-06
2.91588e-07
1.77716e-06
1.00763e-07
1.78239e-06
2.23283e-07
1.77164e-06
-2.49213e-07
1.77786e-06
-3.89151e-08
1.77015e-06
-1.67098e-07
1.77521e-06
-3.55262e-08
1.76835e-06
-4.19142e-08
1.76822e-06
-4.97544e-08
1.76463e-06
1.51134e-08
1.75725e-06
-2.18803e-08
1.75661e-06
5.92961e-08
1.16266e-07
1.74783e-06
1.86045e-06
-2.59755e-07
1.86125e-06
-3.38025e-08
1.86603e-06
7.47977e-07
1.8669e-06
-9.22211e-08
1.86381e-06
-2.63106e-07
1.86808e-06
6.12481e-08
1.86321e-06
-2.11399e-08
1.86621e-06
2.88589e-07
1.86411e-06
1.0287e-07
1.87e-06
2.17387e-07
1.85858e-06
-2.37793e-07
1.8647e-06
-4.50309e-08
1.85632e-06
-1.58722e-07
1.86087e-06
-4.00743e-08
1.85404e-06
-3.50829e-08
1.85279e-06
-4.85042e-08
1.84999e-06
1.7915e-08
1.84157e-06
-1.34661e-08
1.84148e-06
5.9386e-08
1.23618e-07
1.83413e-06
1.94891e-06
-2.55826e-07
1.94952e-06
-3.4414e-08
1.95627e-06
7.41233e-07
1.95716e-06
-9.31132e-08
1.95238e-06
-2.58332e-07
1.95611e-06
5.75223e-08
1.95181e-06
-1.68399e-08
1.95603e-06
2.84369e-07
1.95464e-06
1.04259e-07
1.96124e-06
2.10792e-07
1.94914e-06
-2.25701e-07
1.95482e-06
-5.0709e-08
1.94591e-06
-1.49811e-07
1.94997e-06
-4.41298e-08
1.94365e-06
-2.87683e-08
1.94148e-06
-4.63338e-08
1.93956e-06
1.98338e-08
1.93044e-06
-4.34184e-09
1.93028e-06
5.95426e-08
1.2943e-07
1.92447e-06
2.04157e-06
-2.51204e-07
2.0422e-06
-3.50454e-08
2.05097e-06
7.32457e-07
2.05153e-06
-9.36661e-08
2.04479e-06
-2.51598e-07
2.04826e-06
5.40508e-08
2.04452e-06
-1.30935e-08
2.04967e-06
2.79215e-07
2.04898e-06
1.04953e-07
2.05623e-06
2.03543e-07
2.04358e-06
-2.13054e-07
2.04862e-06
-5.57479e-08
2.03936e-06
-1.40549e-07
2.04286e-06
-4.76355e-08
2.03737e-06
-2.32717e-08
2.03443e-06
-4.3401e-08
2.03334e-06
2.09285e-08
2.02392e-06
5.07632e-09
2.02326e-06
6.02037e-08
1.33646e-07
2.01904e-06
2.13873e-06
-2.45936e-07
2.13942e-06
-3.57317e-08
2.15008e-06
7.21797e-07
2.15021e-06
-9.37937e-08
2.14161e-06
-2.42997e-07
2.14487e-06
5.07846e-08
2.14167e-06
-9.89285e-09
2.1475e-06
2.73391e-07
2.14744e-06
1.05007e-07
2.15522e-06
1.95764e-07
2.1422e-06
-2.0003e-07
2.1465e-06
-6.00491e-08
2.1371e-06
-1.31151e-07
2.13997e-06
-5.0503e-08
2.1354e-06
-1.87038e-08
2.13183e-06
-3.98355e-08
2.13135e-06
2.14089e-08
2.12205e-06
1.43779e-08
2.12065e-06
6.16042e-08
1.36289e-07
2.11801e-06
2.24067e-06
-2.40122e-07
2.2414e-06
-3.64551e-08
2.25366e-06
7.09536e-07
2.2534e-06
-9.3536e-08
2.24327e-06
-2.32867e-07
2.24626e-06
4.77988e-08
2.24359e-06
-7.22964e-09
2.24986e-06
2.67124e-07
2.25038e-06
1.04485e-07
2.25852e-06
1.8763e-07
2.24531e-06
-1.86821e-07
2.24884e-06
-6.35762e-08
2.23951e-06
-1.21826e-07
2.24166e-06
-5.26571e-08
2.23798e-06
-1.50152e-08
2.23391e-06
-3.57704e-08
2.23373e-06
2.15926e-08
2.2249e-06
2.32071e-08
2.2227e-06
6.38027e-08
1.37492e-07
2.2215e-06
2.34763e-06
-2.33877e-07
2.34836e-06
-3.71814e-08
2.36191e-06
6.95986e-07
2.36133e-06
-9.29625e-08
2.35011e-06
-2.21647e-07
2.35271e-06
4.52078e-08
2.35058e-06
-5.0997e-09
2.35708e-06
2.6062e-07
2.35812e-06
1.03446e-07
2.36642e-06
1.79326e-07
2.35322e-06
-1.73615e-07
2.35597e-06
-6.63276e-08
2.34688e-06
-1.1274e-07
2.34829e-06
-5.40696e-08
2.34532e-06
-1.20449e-08
2.3409e-06
-3.13519e-08
2.34068e-06
2.18218e-08
2.33259e-06
3.12963e-08
2.32966e-06
6.67341e-08
1.37481e-07
2.32967e-06
2.45983e-06
-2.27314e-07
2.46052e-06
-3.78682e-08
2.47508e-06
6.81422e-07
2.47424e-06
-9.21206e-08
2.46237e-06
-2.09776e-07
2.46446e-06
4.3117e-08
2.46287e-06
-3.50907e-09
2.46941e-06
2.54075e-07
2.47092e-06
1.01938e-07
2.47923e-06
1.71018e-07
2.46619e-06
-1.60571e-07
2.46819e-06
-6.83307e-08
2.45944e-06
-1.03991e-07
2.46015e-06
-5.47798e-08
2.45767e-06
-9.56862e-09
2.45305e-06
-2.67265e-08
2.45254e-06
2.23301e-08
2.44528e-06
3.85563e-08
2.44178e-06
7.02358e-08
1.3655e-07
2.44271e-06
2.57751e-06
-2.20531e-07
2.57812e-06
-3.84728e-08
2.59348e-06
6.66058e-07
2.59238e-06
-9.10163e-08
2.58024e-06
-1.97637e-07
2.58175e-06
4.16078e-08
2.58071e-06
-2.47677e-09
2.58712e-06
2.47669e-07
2.58906e-06
1.00001e-07
2.59724e-06
1.62831e-07
2.58447e-06
-1.47801e-07
2.5858e-06
-6.96523e-08
2.5774e-06
-9.55937e-08
2.57751e-06
-5.48919e-08
2.57529e-06
-7.3525e-09
2.57056e-06
-2.19939e-08
2.5697e-06
2.31879e-08
2.5632e-06
4.5065e-08
2.55935e-06
7.40828e-08
1.35011e-07
2.56089e-06
2.70091e-06
-2.13609e-07
2.70139e-06
-3.89598e-08
2.71741e-06
6.50038e-07
2.71601e-06
-8.96137e-08
2.70392e-06
-1.85542e-07
2.70478e-06
4.07459e-08
2.70434e-06
-2.03691e-09
2.71046e-06
2.4155e-07
2.71279e-06
9.76715e-08
2.72077e-06
1.54846e-07
2.70833e-06
-1.35355e-07
2.70908e-06
-7.04028e-08
2.70098e-06
-8.7493e-08
2.70062e-06
-5.45397e-08
2.69848e-06
-5.20804e-09
2.69366e-06
-1.71755e-08
2.6925e-06
2.43468e-08
2.68661e-06
5.09572e-08
2.68264e-06
7.80548e-08
1.33143e-07
2.68451e-06
2.83027e-06
-2.06609e-07
2.83061e-06
-3.93007e-08
2.84721e-06
6.3344e-07
2.84544e-06
-8.78489e-08
2.83363e-06
-1.73727e-07
2.83379e-06
4.05877e-08
2.83398e-06
-2.2275e-09
2.83971e-06
2.35819e-07
2.84238e-06
9.4997e-08
2.85015e-06
1.47081e-07
2.838e-06
-1.23203e-07
2.83833e-06
-7.07366e-08
2.83042e-06
-7.95835e-08
2.82972e-06
-5.38348e-08
2.82757e-06
-3.06636e-09
2.82258e-06
-1.21813e-08
2.82123e-06
2.56996e-08
2.81587e-06
5.63185e-08
2.81192e-06
8.2005e-08
1.31152e-07
2.81391e-06
2.96586e-06
-1.99577e-07
2.96603e-06
-3.94691e-08
2.98318e-06
6.16287e-07
2.98098e-06
-8.56429e-08
2.96962e-06
-1.62369e-07
2.96902e-06
4.11876e-08
2.96987e-06
-3.07991e-09
2.97517e-06
2.30521e-07
2.97812e-06
9.20483e-08
2.98571e-06
1.3949e-07
2.97375e-06
-1.11245e-07
2.97384e-06
-7.08276e-08
2.96602e-06
-7.17653e-08
2.965e-06
-5.28075e-08
2.96292e-06
-9.88874e-10
2.95759e-06
-6.8471e-09
2.95613e-06
2.71591e-08
2.95132e-06
6.11257e-08
2.94746e-06
8.58686e-08
1.29187e-07
2.94942e-06
3.10798e-06
-1.92547e-07
3.10794e-06
-3.94346e-08
3.12566e-06
5.98564e-07
3.12293e-06
-8.2913e-08
3.11217e-06
-1.516e-07
3.11076e-06
4.2595e-08
3.11228e-06
-4.60525e-09
3.11716e-06
2.25642e-07
3.12027e-06
8.89372e-08
3.1278e-06
1.31962e-07
3.11588e-06
-9.93259e-08
3.1159e-06
-7.08457e-08
3.10812e-06
-6.39809e-08
3.1067e-06
-5.13945e-08
3.10482e-06
8.96939e-10
3.09902e-06
-1.05263e-09
3.09743e-06
2.87551e-08
3.0933e-06
6.52524e-08
3.08955e-06
8.96153e-08
1.27354e-07
3.09139e-06
3.25692e-06
-1.85552e-07
3.25664e-06
-3.91601e-08
3.27497e-06
5.80235e-07
3.27163e-06
-7.95768e-08
3.26156e-06
-1.41524e-07
3.25931e-06
4.48461e-08
3.26148e-06
-6.7788e-09
3.26602e-06
2.21106e-07
3.26913e-06
8.58241e-08
3.27676e-06
1.24331e-07
3.26471e-06
-8.72758e-08
3.26477e-06
-7.09033e-08
3.25705e-06
-5.62666e-08
3.25509e-06
-4.94299e-08
3.25353e-06
2.45355e-09
3.24729e-06
5.18943e-09
3.24539e-06
3.06542e-08
3.24209e-06
6.85544e-08
3.23854e-06
9.31659e-08
1.25763e-07
3.24013e-06
3.413e-06
-1.78624e-07
3.41245e-06
-3.86016e-08
3.43143e-06
5.61247e-07
3.42741e-06
-7.55554e-08
3.41811e-06
-1.32222e-07
3.415e-06
4.7954e-08
3.41775e-06
-9.53204e-09
3.42208e-06
2.16777e-07
3.42499e-06
8.29171e-08
3.43292e-06
1.16402e-07
3.4206e-06
-7.4954e-08
3.42071e-06
-7.10158e-08
3.41321e-06
-4.87664e-08
3.41046e-06
-4.66768e-08
3.40931e-06
3.60024e-09
3.4028e-06
1.1702e-08
3.40035e-06
3.30973e-08
3.39794e-06
7.09637e-08
3.39475e-06
9.63577e-08
1.24497e-07
3.39602e-06
3.57658e-06
-1.71796e-07
3.57569e-06
-3.77087e-08
3.59539e-06
5.41547e-07
3.59061e-06
-7.07748e-08
3.58215e-06
-1.23759e-07
3.5782e-06
5.19025e-08
3.58141e-06
-1.27464e-08
3.58573e-06
2.12463e-07
3.58818e-06
8.04625e-08
3.5966e-06
1.07986e-07
3.58394e-06
-6.23008e-08
3.58399e-06
-7.10574e-08
3.57696e-06
-4.174e-08
3.57314e-06
-4.28564e-08
3.5724e-06
4.34277e-09
3.56591e-06
1.81903e-08
3.56274e-06
3.62689e-08
3.56112e-06
7.25817e-08
3.55853e-06
9.89462e-08
1.23573e-07
3.55945e-06
3.74801e-06
-1.65102e-07
3.74673e-06
-3.64259e-08
3.7672e-06
5.21079e-07
3.76159e-06
-6.51702e-08
3.75401e-06
-1.16181e-07
3.74928e-06
5.66387e-08
3.75278e-06
-1.62478e-08
3.75733e-06
2.07914e-07
3.75906e-06
7.87268e-08
3.7681e-06
9.89479e-08
3.75519e-06
-4.93839e-08
3.75488e-06
-7.07493e-08
3.74865e-06
-3.55103e-08
3.74354e-06
-3.77479e-08
3.74305e-06
4.83034e-09
3.73693e-06
2.43091e-08
3.73302e-06
4.01852e-08
3.73192e-06
7.36776e-08
3.73017e-06
1.007e-07
1.22889e-07
3.73085e-06
3.92766e-06
-1.58578e-07
3.92593e-06
-3.46956e-08
3.94722e-06
4.99794e-07
3.94074e-06
-5.86959e-08
3.93406e-06
-1.09499e-07
3.92864e-06
6.20563e-08
3.9322e-06
-1.98005e-08
3.93727e-06
2.02843e-07
3.93804e-06
7.79578e-08
3.94774e-06
8.92483e-08
3.93478e-06
-3.64224e-08
3.93371e-06
-6.96799e-08
3.92858e-06
-3.03889e-08
3.92216e-06
-3.13268e-08
3.92157e-06
5.42026e-09
3.91616e-06
2.97249e-08
3.91167e-06
4.46698e-08
3.91075e-06
7.46029e-08
3.90993e-06
1.01516e-07
1.22211e-07
3.91061e-06
4.11593e-06
-1.52262e-07
4.1137e-06
-3.24616e-08
4.13583e-06
4.77661e-07
4.12847e-06
-5.13373e-08
4.12266e-06
-1.0368e-07
4.11672e-06
6.79887e-08
4.12003e-06
-2.31076e-08
4.12593e-06
1.9694e-07
4.12554e-06
7.83478e-08
4.13581e-06
7.89836e-08
4.12316e-06
-2.37699e-08
4.12086e-06
-6.73887e-08
4.11703e-06
-2.65585e-08
4.10952e-06
-2.38115e-08
4.1084e-06
6.54197e-09
4.10389e-06
3.42286e-08
4.09915e-06
4.94132e-08
4.09809e-06
7.56595e-08
4.09811e-06
1.01499e-07
1.21238e-07
4.09908e-06
4.31323e-06
-1.46188e-07
4.31044e-06
-2.9672e-08
4.33343e-06
4.54671e-07
4.32522e-06
-4.31281e-08
4.32017e-06
-9.86335e-08
4.31395e-06
7.42071e-08
4.31667e-06
-2.58258e-08
4.3237e-06
1.89916e-07
4.32207e-06
7.9978e-08
4.33265e-06
6.84026e-08
4.32076e-06
-1.18782e-08
4.31681e-06
-6.34429e-08
4.31424e-06
-2.39917e-08
4.30607e-06
-1.5641e-08
4.30402e-06
8.59828e-09
4.3005e-06
3.7744e-08
4.29583e-06
5.40817e-08
4.29449e-06
7.70007e-08
4.29507e-06
1.00923e-07
1.19738e-07
4.29657e-06
4.51998e-06
-1.40391e-07
4.51659e-06
-2.62853e-08
4.54041e-06
4.30852e-07
4.53145e-06
-3.41674e-08
4.52701e-06
-9.41934e-08
4.52079e-06
8.04231e-08
4.52255e-06
-2.75871e-08
4.53092e-06
1.81549e-07
4.52811e-06
8.27887e-08
4.53862e-06
5.78961e-08
4.52795e-06
-1.21478e-09
4.52211e-06
-5.75953e-08
4.52052e-06
-2.24043e-08
4.51224e-06
-7.36058e-09
4.50901e-06
1.18267e-08
4.50638e-06
4.03714e-08
4.50209e-06
5.83747e-08
4.50047e-06
7.86234e-08
4.50128e-06
1.00111e-07
1.17658e-07
4.50336e-06
4.73662e-06
-1.349e-07
4.73262e-06
-2.22793e-08
4.7572e-06
4.06274e-07
4.74766e-06
-2.46351e-08
4.74359e-06
-9.01157e-08
4.73771e-06
8.62969e-08
4.73815e-06
-2.80305e-08
4.74795e-06
1.71753e-07
4.74422e-06
8.65234e-08
4.75414e-06
4.79729e-08
4.74508e-06
7.84417e-09
4.73734e-06
-4.98585e-08
4.73628e-06
-2.13444e-08
4.7284e-06
5.24872e-10
4.72398e-06
1.62449e-08
4.72199e-06
4.23649e-08
4.71833e-06
6.2034e-08
4.71649e-06
8.04564e-08
4.71733e-06
9.92798e-08
1.1517e-07
4.71981e-06
4.96363e-06
-1.29735e-07
4.95901e-06
-1.76578e-08
4.98422e-06
3.81069e-07
4.97439e-06
-1.48087e-08
4.97035e-06
-8.60738e-08
4.96518e-06
9.14612e-08
4.96401e-06
-2.68597e-08
4.97515e-06
1.60617e-07
4.97089e-06
9.07784e-08
4.97971e-06
3.91574e-08
4.97244e-06
1.51174e-08
4.96309e-06
-4.05108e-08
4.96202e-06
-2.02745e-08
4.95493e-06
7.61308e-09
4.94949e-06
2.16897e-08
4.94781e-06
4.40376e-08
4.94497e-06
6.48794e-08
4.94304e-06
8.23814e-08
4.94378e-06
9.85426e-08
1.12528e-07
4.94642e-06
5.20149e-06
-1.24909e-07
5.19629e-06
-1.24599e-08
5.22192e-06
3.55438e-07
5.21219e-06
-5.0744e-09
5.20778e-06
-8.16631e-08
5.20369e-06
9.55465e-08
5.20074e-06
-2.39105e-08
5.21289e-06
1.4847e-07
5.20867e-06
9.49988e-08
5.2159e-06
3.19235e-08
5.21037e-06
2.06513e-08
5.19986e-06
-3.00034e-08
5.1983e-06
-1.87073e-08
5.19224e-06
1.36677e-08
5.18606e-06
2.7869e-08
5.1844e-06
4.5698e-08
5.18248e-06
6.68057e-08
5.1806e-06
8.42597e-08
5.18119e-06
9.79528e-08
1.09924e-07
5.18379e-06
5.4507e-06
-1.20419e-07
5.445e-06
-6.7621e-09
5.47078e-06
3.2966e-07
5.46164e-06
4.06954e-09
5.45639e-06
-7.6416e-08
5.45372e-06
9.82125e-08
5.44899e-06
-1.91778e-08
5.46163e-06
1.35832e-07
5.45801e-06
9.86196e-08
5.46337e-06
2.65575e-08
5.45935e-06
2.46777e-08
5.44813e-06
-1.87872e-08
5.44575e-06
-1.6331e-08
5.44084e-06
1.85845e-08
5.43426e-06
3.44463e-08
5.4323e-06
4.76613e-08
5.43131e-06
6.7789e-08
5.42968e-06
8.58914e-08
5.43006e-06
9.7573e-08
1.07432e-07
5.43255e-06
5.71179e-06
-1.1625e-07
5.70571e-06
-6.81954e-10
5.73127e-06
3.04098e-07
5.7233e-06
1.20375e-08
5.71674e-06
-6.98544e-08
5.71573e-06
9.92271e-08
5.70941e-06
-1.28576e-08
5.72188e-06
1.23358e-07
5.71931e-06
1.01188e-07
5.72277e-06
2.31001e-08
5.71988e-06
2.75685e-08
5.70839e-06
-7.29623e-09
5.70507e-06
-1.30177e-08
5.70127e-06
2.23903e-08
5.69465e-06
4.10687e-08
5.69211e-06
5.01948e-08
5.69195e-06
6.7953e-08
5.69084e-06
8.70032e-08
5.69097e-06
9.74396e-08
1.051e-07
5.6933e-06
5.98531e-06
-1.12368e-07
5.97901e-06
5.61579e-09
6.00391e-06
2.792e-07
5.99774e-06
1.82128e-08
5.98946e-06
-6.15769e-08
5.9901e-06
9.85811e-08
5.98271e-06
-5.46039e-09
5.99427e-06
1.11798e-07
5.99297e-06
1.02487e-07
5.99477e-06
2.12931e-08
5.99255e-06
2.97922e-08
5.98118e-06
4.07037e-09
5.97695e-06
-8.785e-09
5.97413e-06
2.52139e-08
5.9678e-06
4.74013e-08
5.96452e-06
5.34715e-08
5.96488e-06
6.75951e-08
5.96459e-06
8.72924e-08
5.96453e-06
9.75005e-08
1.03e-07
5.96663e-06
6.27184e-06
-1.08723e-07
6.26552e-06
1.19369e-08
6.28925e-06
2.55474e-07
6.28542e-06
2.2046e-08
6.27525e-06
-5.14067e-08
6.27728e-06
9.65487e-08
6.26958e-06
2.23921e-09
6.27951e-06
1.01861e-07
6.2794e-06
1.02597e-07
6.28e-06
2.06991e-08
6.27811e-06
3.16842e-08
6.267e-06
1.51765e-08
6.26199e-06
-3.77694e-09
6.26003e-06
2.71784e-08
6.25428e-06
5.31467e-08
6.25024e-06
5.75112e-08
6.2507e-06
6.71377e-08
6.25141e-06
8.65795e-08
6.25138e-06
9.75331e-08
1.01216e-07
6.25317e-06
6.57199e-06
-1.05246e-07
6.56587e-06
1.80642e-08
6.5879e-06
2.33434e-07
6.58677e-06
2.31796e-08
6.57493e-06
-3.95631e-08
6.57777e-06
9.37093e-08
6.57057e-06
9.44038e-09
6.57842e-06
9.40105e-08
6.57914e-06
1.01875e-07
6.57897e-06
2.08687e-08
6.57728e-06
3.33777e-08
6.56655e-06
2.59026e-08
6.56071e-06
2.06091e-09
6.55956e-06
2.8333e-08
6.55469e-06
5.80121e-08
6.55001e-06
6.21933e-08
6.55014e-06
6.70056e-08
6.5518e-06
8.4921e-08
6.55214e-06
9.71979e-08
9.97416e-08
6.55361e-06
6.8864e-06
-1.01854e-07
6.88068e-06
2.37804e-08
6.90063e-06
2.13486e-07
6.90225e-06
2.15555e-08
6.88937e-06
-2.66788e-08
6.89207e-06
9.10131e-08
6.88608e-06
1.54232e-08
6.89187e-06
8.82291e-08
6.89279e-06
1.00948e-07
6.89223e-06
2.14281e-08
6.89089e-06
3.47186e-08
6.88056e-06
3.62358e-08
6.8738e-06
8.81485e-09
6.87326e-06
2.88737e-08
6.86961e-06
6.16627e-08
6.86454e-06
6.72681e-08
6.86399e-06
6.75491e-08
6.86633e-06
8.25824e-08
6.86735e-06
9.61805e-08
9.84559e-08
6.86864e-06
7.21573e-06
-9.84494e-08
7.21063e-06
2.88812e-08
7.22821e-06
1.95905e-07
7.23238e-06
1.73887e-08
7.21943e-06
-1.37292e-08
7.22094e-06
8.95037e-08
7.21655e-06
1.98089e-08
7.22074e-06
8.40385e-08
7.22116e-06
1.00536e-07
7.22036e-06
2.22236e-08
7.21969e-06
3.53845e-08
7.20986e-06
4.60697e-08
7.20206e-06
1.66196e-08
7.20178e-06
2.91523e-08
7.1996e-06
6.38382e-08
7.19454e-06
7.23312e-08
7.19309e-06
6.89972e-08
7.19571e-06
7.99587e-08
7.19758e-06
9.4311e-08
9.71603e-08
7.19888e-06
7.5607e-06
-9.49234e-08
7.55643e-06
3.31503e-08
7.57148e-06
1.80852e-07
7.57772e-06
1.11481e-08
7.56585e-06
-1.85533e-09
7.56528e-06
9.00695e-08
7.56247e-06
2.26253e-08
7.56584e-06
8.06683e-08
7.56528e-06
1.01098e-07
7.56387e-06
2.36289e-08
7.56422e-06
3.50342e-08
7.55528e-06
5.50135e-08
7.54636e-06
2.55394e-08
7.54582e-06
2.96874e-08
7.54522e-06
6.44442e-08
7.54067e-06
7.68817e-08
7.53828e-06
7.13817e-08
7.54074e-06
7.74948e-08
7.54346e-06
9.15913e-08
9.56649e-08
7.54496e-06
7.92205e-06
-9.11596e-08
7.91887e-06
3.63254e-08
7.93132e-06
1.68408e-07
7.93895e-06
3.51243e-09
7.92923e-06
7.86673e-09
7.92612e-06
9.31807e-08
7.92445e-06
2.42972e-08
7.92781e-06
7.73084e-08
7.92608e-06
1.02824e-07
7.92352e-06
2.61937e-08
7.92495e-06
3.36013e-08
7.91749e-06
6.24768e-08
7.90765e-06
3.53758e-08
7.90626e-06
3.10745e-08
7.90704e-06
6.36682e-08
7.90355e-06
8.03707e-08
7.90043e-06
7.45e-08
7.90229e-06
7.56368e-08
7.90573e-06
8.81543e-08
9.38171e-08
7.90757e-06
8.30056e-06
-8.70394e-08
8.29875e-06
3.81348e-08
8.30864e-06
1.58522e-07
8.31681e-06
-4.65542e-09
8.31009e-06
1.45813e-08
8.30453e-06
9.87394e-08
8.30308e-06
2.57456e-08
8.30722e-06
7.31675e-08
8.30457e-06
1.05476e-07
8.3002e-06
3.05618e-08
8.30242e-06
3.13881e-08
8.29707e-06
6.78277e-08
8.28682e-06
4.5618e-08
8.2841e-06
3.37971e-08
8.2858e-06
6.19676e-08
8.28378e-06
8.23935e-08
8.28037e-06
7.7914e-08
8.28126e-06
7.47383e-08
8.28512e-06
8.42945e-08
9.14346e-08
8.28751e-06
8.69707e-06
-8.24489e-08
8.69691e-06
3.82996e-08
8.70433e-06
1.51097e-07
8.7121e-06
-1.2427e-08
8.70896e-06
1.77265e-08
8.70167e-06
1.06031e-07
8.69916e-06
2.82467e-08
8.70457e-06
6.77625e-08
8.70177e-06
1.08279e-07
8.69512e-06
3.72048e-08
8.6974e-06
2.91092e-08
8.69456e-06
7.06695e-08
8.68463e-06
5.55466e-08
8.68042e-06
3.80138e-08
8.68238e-06
5.99985e-08
8.68197e-06
8.28108e-08
8.67884e-06
8.10373e-08
8.67867e-06
7.49143e-08
8.68249e-06
8.04758e-08
8.83468e-08
8.68557e-06
9.11247e-06
-7.72969e-08
9.11412e-06
3.66428e-08
9.11935e-06
1.45871e-07
9.12577e-06
-1.88492e-08
9.12639e-06
1.71115e-08
9.11854e-06
1.13879e-07
9.11384e-06
3.29485e-08
9.12036e-06
6.12376e-08
9.11839e-06
1.1025e-07
9.10968e-06
4.5912e-08
9.1109e-06
2.78898e-08
9.11057e-06
7.10025e-08
9.10175e-06
6.43683e-08
9.09625e-06
4.35125e-08
9.09781e-06
5.84418e-08
9.09882e-06
8.18004e-08
9.09654e-06
8.33195e-08
9.09553e-06
7.59236e-08
9.09875e-06
7.72543e-08
8.45337e-08
9.10256e-06
9.54769e-06
-7.15266e-08
9.55121e-06
3.31251e-08
9.55465e-06
1.42427e-07
9.55891e-06
-2.31026e-08
9.563e-06
1.30154e-08
9.55605e-06
1.20829e-07
9.54838e-06
4.06199e-08
9.55527e-06
5.43435e-08
9.55512e-06
1.10402e-07
9.54505e-06
5.59831e-08
9.54414e-06
2.88002e-08
9.54586e-06
6.92868e-08
9.53887e-06
7.13575e-08
9.53251e-06
4.98709e-08
9.53322e-06
5.7736e-08
9.53519e-06
7.98286e-08
9.53408e-06
8.44252e-08
9.5328e-06
7.721e-08
9.535e-06
7.50516e-08
8.02691e-08
9.53926e-06
1.00037e-05
-6.51344e-08
1.0009e-05
2.78871e-08
1.00112e-05
1.40185e-07
1.00127e-05
-2.45441e-08
1.00196e-05
6.06167e-09
1.0015e-05
1.25463e-07
1.00042e-05
5.13571e-08
1.00103e-05
4.82762e-08
1.00125e-05
1.08199e-07
1.00021e-05
6.64006e-08
9.99868e-06
3.22145e-08
1.00014e-05
6.65537e-08
9.99665e-06
7.6129e-08
9.99006e-06
5.64564e-08
9.98976e-06
5.80362e-08
9.99215e-06
7.74392e-08
9.99222e-06
8.43517e-08
9.99123e-06
7.81986e-08
9.99247e-06
7.38168e-08
7.61386e-08
9.9966e-06
1.04817e-05
-5.81834e-08
1.04883e-05
2.12738e-08
1.04901e-05
1.38399e-07
1.04883e-05
-2.27541e-08
1.04972e-05
-2.84189e-09
1.04959e-05
1.26804e-07
1.04828e-05
6.43814e-08
1.04867e-05
4.44121e-08
1.04913e-05
1.03616e-07
1.04817e-05
7.5998e-08
1.04759e-05
3.80224e-08
1.04785e-05
6.39462e-08
1.04759e-05
7.87284e-08
1.04698e-05
6.25855e-08
1.04685e-05
5.93368e-08
1.04709e-05
7.50001e-08
1.04719e-05
8.33286e-08
1.04715e-05
7.85689e-08
1.04723e-05
7.3045e-08
7.27229e-08
1.04757e-05
1.09826e-05
-5.08006e-08
1.09901e-05
1.3765e-08
1.09922e-05
1.36303e-07
1.09872e-05
-1.76662e-08
1.09968e-05
-1.24906e-08
1.09993e-05
1.24293e-07
1.09853e-05
7.84405e-08
1.09859e-05
4.376e-08
1.09924e-05
9.71697e-08
1.09846e-05
8.37731e-08
1.09769e-05
4.57305e-08
1.09785e-05
6.2338e-08
1.09776e-05
7.95918e-08
1.09725e-05
6.77296e-08
1.09704e-05
6.14253e-08
1.09726e-05
7.28096e-08
1.09743e-05
8.15964e-08
1.09746e-05
7.82764e-08
1.09754e-05
7.22636e-08
7.00782e-08
1.0978e-05
1.15077e-05
-4.31668e-08
1.15156e-05
5.91524e-09
1.15187e-05
1.33212e-07
1.15106e-05
-9.55768e-09
1.15197e-05
-2.15961e-08
1.15261e-05
1.179e-07
1.15124e-05
9.20886e-08
1.15096e-05
4.65862e-08
1.15168e-05
8.99708e-08
1.15114e-05
8.91708e-08
1.15028e-05
5.43235e-08
1.15028e-05
6.23553e-08
1.15031e-05
7.92977e-08
1.14991e-05
7.1707e-08
1.14967e-05
6.38604e-08
1.14983e-05
7.11628e-08
1.15006e-05
7.93493e-08
1.15014e-05
7.74102e-08
1.15024e-05
7.12471e-08
6.79097e-08
1.15046e-05
1.20582e-05
-3.5511e-08
1.20657e-05
-1.65842e-09
1.20704e-05
1.28552e-07
1.20599e-05
9.59365e-10
1.2067e-05
-2.87608e-08
1.2077e-05
1.07981e-07
1.20653e-05
1.03775e-07
1.20592e-05
5.26419e-08
1.20658e-05
8.33676e-08
1.20631e-05
9.19182e-08
1.20545e-05
6.29269e-08
1.20529e-05
6.39634e-08
1.20535e-05
7.86319e-08
1.20508e-05
7.44871e-08
1.20483e-05
6.62711e-08
1.20494e-05
7.01201e-08
1.20518e-05
7.68894e-08
1.20532e-05
7.60059e-08
1.20545e-05
7.00007e-08
6.5849e-08
1.20566e-05
1.26352e-05
-2.80923e-08
1.26419e-05
-8.34192e-09
1.26484e-05
1.21964e-07
1.26364e-05
1.30332e-08
1.26404e-05
-3.27687e-08
1.26531e-05
9.52248e-08
1.26447e-05
1.12176e-07
1.26361e-05
6.13217e-08
1.2641e-05
7.83819e-08
1.26407e-05
9.22854e-08
1.26329e-05
7.07241e-08
1.263e-05
6.68465e-08
1.26305e-05
7.81284e-08
1.26287e-05
7.62622e-08
1.26266e-05
6.8441e-08
1.26271e-05
6.95432e-08
1.26295e-05
7.4535e-08
1.26313e-05
7.4152e-08
1.26328e-05
6.85039e-08
6.37479e-08
1.26349e-05
1.324e-05
-2.11547e-08
1.32453e-05
-1.36398e-08
1.32539e-05
1.13385e-07
1.32412e-05
2.56645e-08
1.32414e-05
-3.29011e-08
1.32559e-05
8.06648e-08
1.32515e-05
1.16613e-07
1.32414e-05
7.14355e-08
1.32441e-05
7.56447e-08
1.32454e-05
9.10192e-08
1.32391e-05
7.70271e-08
1.32353e-05
7.06414e-08
1.32354e-05
7.79947e-08
1.32343e-05
7.73611e-08
1.32326e-05
7.01883e-08
1.32328e-05
6.93205e-08
1.3235e-05
7.23785e-08
1.32371e-05
7.20435e-08
1.32388e-05
6.67297e-08
6.15765e-08
1.3241e-05
1.38739e-05
-1.48982e-08
1.38775e-05
-1.72256e-08
1.38878e-05
1.0311e-07
1.38757e-05
3.77613e-08
1.38719e-05
-2.91054e-08
1.38868e-05
6.57868e-08
1.38864e-05
1.16941e-07
1.38763e-05
8.15538e-08
1.38765e-05
7.54227e-08
1.38787e-05
8.88938e-08
1.38741e-05
8.15459e-08
1.387e-05
7.47464e-08
1.38697e-05
7.83314e-08
1.38691e-05
7.79684e-08
1.38677e-05
7.15328e-08
1.38678e-05
6.92281e-08
1.38697e-05
7.05344e-08
1.3872e-05
6.97554e-08
1.3874e-05
6.47143e-08
5.93766e-08
1.38762e-05
1.45382e-05
-9.47725e-09
1.45399e-05
-1.89228e-08
1.45514e-05
9.1691e-08
1.45408e-05
4.83046e-08
1.45336e-05
-2.18797e-08
1.45472e-05
5.21491e-08
1.45507e-05
1.1343e-07
1.45418e-05
9.0454e-08
1.45399e-05
7.73234e-08
1.45421e-05
8.67481e-08
1.45393e-05
8.43454e-08
1.45355e-05
7.85692e-08
1.45347e-05
7.91166e-08
1.45345e-05
7.81893e-08
1.45335e-05
7.24625e-08
1.45336e-05
6.91834e-08
1.45352e-05
6.8949e-08
1.45374e-05
6.75386e-08
1.45396e-05
6.24474e-08
5.71373e-08
1.45419e-05
1.52344e-05
-4.96981e-09
1.52342e-05
-1.87406e-08
1.5246e-05
7.98341e-08
1.52379e-05
5.64979e-08
1.52281e-05
-1.21e-08
1.52392e-05
4.10419e-08
1.52458e-05
1.06805e-07
1.5239e-05
9.72611e-08
1.52357e-05
8.05908e-08
1.52373e-05
8.51352e-08
1.52359e-05
8.57592e-08
1.52328e-05
8.17365e-08
1.52318e-05
8.00603e-08
1.52318e-05
7.81786e-08
1.52315e-05
7.28142e-08
1.52315e-05
6.91588e-08
1.52329e-05
6.75248e-08
1.52349e-05
6.556e-08
1.52372e-05
6.01592e-08
5.47608e-08
1.52396e-05
1.59637e-05
-1.37984e-09
1.59619e-05
-1.68968e-08
1.59735e-05
6.82707e-08
1.5968e-05
6.20041e-08
1.59567e-05
-8.84901e-10
1.59646e-05
3.32003e-08
1.59732e-05
9.81914e-08
1.59691e-05
1.01404e-07
1.59652e-05
8.44609e-08
1.59661e-05
8.42134e-08
1.59657e-05
8.61381e-08
1.59633e-05
8.41411e-08
1.59624e-05
8.09451e-08
1.59627e-05
7.78954e-08
1.5963e-05
7.25728e-08
1.59633e-05
6.88196e-08
1.59645e-05
6.63473e-08
1.59663e-05
6.37044e-08
1.59683e-05
5.81935e-08
5.23078e-08
1.59708e-05
1.67279e-05
1.35709e-09
1.67247e-05
-1.37503e-08
1.67353e-05
5.7642e-08
1.67324e-05
6.49798e-08
1.6721e-05
1.04452e-08
1.67254e-05
2.88843e-08
1.67347e-05
8.88734e-08
1.67334e-05
1.02674e-07
1.67297e-05
8.81787e-08
1.67299e-05
8.39528e-08
1.67303e-05
8.57816e-08
1.67287e-05
8.57181e-08
1.67279e-05
8.17564e-08
1.67286e-05
7.72373e-08
1.67293e-05
7.18132e-08
1.67302e-05
6.79135e-08
1.67314e-05
6.51829e-08
1.6733e-05
6.20887e-08
1.67347e-05
5.65338e-08
5.0148e-08
1.67368e-05
1.75284e-05
3.35294e-09
1.75244e-05
-9.78845e-09
1.75335e-05
4.85052e-08
1.75328e-05
6.57384e-08
1.75222e-05
2.10188e-08
1.75234e-05
2.7708e-08
1.75324e-05
7.98758e-08
1.75336e-05
1.01476e-07
1.75307e-05
9.10719e-08
1.75305e-05
8.41475e-08
1.75313e-05
8.49334e-08
1.75306e-05
8.64268e-08
1.75299e-05
8.24915e-08
1.75307e-05
7.63956e-08
1.75321e-05
7.04544e-08
1.75335e-05
6.65231e-08
1.75349e-05
6.37216e-08
1.75364e-05
6.06463e-08
1.75377e-05
5.52356e-08
4.84763e-08
1.75394e-05
1.8367e-05
4.74385e-09
1.83626e-05
-5.4447e-09
1.837e-05
4.11586e-08
1.83709e-05
6.47765e-08
1.83617e-05
3.02382e-08
1.83605e-05
2.89407e-08
1.83683e-05
7.20307e-08
1.83713e-05
9.84462e-08
1.83697e-05
9.27127e-08
1.83694e-05
8.4458e-08
1.83706e-05
8.37245e-08
1.83707e-05
8.63243e-08
1.83702e-05
8.304e-08
1.83708e-05
7.57607e-08
1.83726e-05
6.86152e-08
1.83745e-05
6.46562e-08
1.83762e-05
6.19786e-08
1.83778e-05
5.90363e-08
1.83788e-05
5.42847e-08
4.7213e-08
1.83801e-05
1.92455e-05
5.64911e-09
1.92411e-05
-1.01036e-09
1.92466e-05
3.55934e-08
1.92487e-05
6.26643e-08
1.92411e-05
3.79136e-08