/*--------------------------------*- C++ -*----------------------------------*\
| =========                 |                                                 |
| \\      /  F ield         | OpenFOAM: The Open Source CFD Toolbox           |
|  \\    /   O peration     | Version:  2106                                  |
|   \\  /    A nd           | Website:  www.openfoam.com                      |
|    \\/     M anipulation  |                                                 |
\*---------------------------------------------------------------------------*/
FoamFile
{
    version     2.0;
    format      ascii;
    arch        "LSB;label=32;scalar=64";
    class       volScalarField;
    location    "0.825";
    object      p;
}
// * * * * * * * * * * * * * * * * * * * * * * * * * * * * * * * * * * * * * //

dimensions      [0 2 -2 0 0 0 0];

internalField   nonuniform List<scalar> 
9600
(
3.37886e-10
3.32907e-06
0.000760738
0.000635675
0.000915982
0.00123071
5.12247e-05
8.85852e-06
-0.000134695
0.000711673
0.000588221
0.00164909
0.00193279
0.00277112
0.00356477
0.00472183
0.00682594
0.00777852
0.0113812
0.0156344
2.3052e-06
-5.81618e-06
0.000758752
0.000640093
0.00091798
0.00121407
6.11276e-05
5.72382e-06
-0.000133614
0.000717057
0.000588024
0.00164758
0.00193682
0.00276856
0.00356854
0.00470167
0.00683109
0.00771645
0.0114389
0.0151722
4.30093e-06
-1.30993e-05
0.000757357
0.000644733
0.000917198
0.00119291
7.53731e-05
4.55162e-06
-0.000128137
0.00072289
0.000586541
0.00164587
0.00194477
0.00276185
0.0035691
0.00467629
0.00682563
0.00765296
0.0114502
0.0145645
5.64711e-06
-1.8753e-05
0.000755412
0.00064767
0.000915519
0.00116885
8.81226e-05
7.23461e-06
-0.000119098
0.000726523
0.000583723
0.00164356
0.00195494
0.00275087
0.00356693
0.00464758
0.00681491
0.00759308
0.0113904
0.0140526
6.64965e-06
-2.32008e-05
0.000752216
0.000649205
0.000914266
0.00114098
9.97877e-05
1.39596e-05
-0.0001077
0.000727455
0.000579549
0.00164006
0.00196611
0.00273613
0.00356454
0.00461452
0.00680578
0.00752472
0.0113003
0.0136006
7.52767e-06
-2.65433e-05
0.000747737
0.000649805
0.00091354
0.00110981
0.000111683
2.38205e-05
-9.51506e-05
0.0007259
0.000574565
0.00163549
0.00197765
0.00271863
0.00356186
0.00457901
0.00679438
0.00745117
0.0111831
0.0131767
8.36854e-06
-2.90563e-05
0.000742211
0.000649892
0.000913264
0.00107632
0.000124042
3.5555e-05
-8.20242e-05
0.000722657
0.000569436
0.00163005
0.00198949
0.00269895
0.00355893
0.00454163
0.00677726
0.0073758
0.0110324
0.0127734
9.23252e-06
-3.10835e-05
0.000736026
0.000649859
0.000913229
0.00104117
0.000136743
4.81661e-05
-6.83446e-05
0.000718447
0.000564392
0.00162372
0.00200204
0.0026776
0.00355546
0.0045025
0.00675238
0.00729895
0.0108463
0.0123879
1.01623e-05
-3.29248e-05
0.000729577
0.000649925
0.000913131
0.00100481
0.000149698
6.09062e-05
-5.40279e-05
0.000713681
0.000559457
0.00161642
0.00201515
0.00265506
0.00355065
0.00446226
0.00671777
0.00722053
0.0106264
0.0120175
1.11767e-05
-3.47961e-05
0.00072314
0.000650139
0.000912759
0.000967623
0.000162819
7.3284e-05
-3.90659e-05
0.000708591
0.000554614
0.00160809
0.002029
0.00263169
0.00354372
0.00442163
0.00667156
0.00714045
0.0103751
0.0116556
1.22849e-05
-3.68455e-05
0.000716838
0.000650472
0.000912034
0.000929886
0.000176027
8.50662e-05
-2.35414e-05
0.000703328
0.000549873
0.00159873
0.00204335
0.00260771
0.0035339
0.0043812
0.00661234
0.00705843
0.0100947
0.0112957
1.34937e-05
-3.91837e-05
0.000710691
0.000650881
0.000910937
0.000891781
0.00018928
9.61863e-05
-7.61404e-06
0.000698008
0.000545023
0.0015884
0.00205772
0.00258336
0.00352039
0.00434123
0.00653929
0.0069777
0.00978841
0.0109346
1.48118e-05
-4.19004e-05
0.000704667
0.000651344
0.000909455
0.000853419
0.000202547
0.000106671
8.5044e-06
0.00069275
0.000539845
0.00157723
0.00207151
0.00255889
0.00350252
0.00430159
0.00645169
0.00688731
0.00946093
0.010568
1.62548e-05
-4.50709e-05
0.000698712
0.000651859
0.00090755
0.000814865
0.00021579
0.000116608
2.45694e-05
0.000687689
0.000534237
0.00156547
0.0020841
0.00253446
0.00347964
0.00426178
0.00634948
0.00678904
0.00911771
0.0101933
1.7844e-05
-4.87652e-05
0.000692765
0.000652449
0.00090516
0.000776174
0.000228957
0.000126117
4.03203e-05
0.000682984
0.000527958
0.00155341
0.00209504
0.00251002
0.00345116
0.00422098
0.0062336
0.00668013
0.00876357
0.00980952
1.96065e-05
-5.30513e-05
0.000686764
0.000653142
0.000902208
0.000737404
0.000241972
0.000135354
5.54507e-05
0.000678841
0.000520737
0.00154125
0.00210399
0.0024854
0.00341697
0.00417767
0.00610532
0.00655829
0.00840211
0.00941704
2.15756e-05
-5.79974e-05
0.000680645
0.000653972
0.000898606
0.000698643
0.000254725
0.000144497
6.95992e-05
0.000675509
0.000512333
0.00152902
0.00211067
0.00246024
0.00337739
0.00412972
0.00596549
0.00642244
0.00803604
0.00901636
2.37917e-05
-6.36734e-05
0.000674339
0.000654976
0.000894264
0.000660013
0.000267059
0.00015375
8.2392e-05
0.000673224
0.000502577
0.00151673
0.00211507
0.00243371
0.00333308
0.0040752
0.00581443
0.00627295
0.00766704
0.00860759
2.63033e-05
-7.01527e-05
0.000667769
0.000656199
0.000889091
0.00062168
0.000278764
0.000163345
9.3444e-05
0.000672155
0.000491346
0.00150429
0.00211739
0.00240459
0.00328482
0.00401293
0.00565192
0.00611061
0.00729634
0.00819134
2.91673e-05
-7.75107e-05
0.000660841
0.000657695
0.000882994
0.00058385
0.000289584
0.000173527
0.000102397
0.000672365
0.000478681
0.00149124
0.0021183
0.00237153
0.00323268
0.00394252
0.00547741
0.00593634
0.00692568
0.0077683
3.24472e-05
-8.58242e-05
0.000653443
0.000659539
0.000875878
0.000546736
0.000299229
0.000184575
0.000108927
0.000673861
0.000461393
0.00147663
0.00211882
0.00233323
0.00317588
0.00386458
0.00528999
0.00575082
0.00655776
0.00733885
3.6216e-05
-9.51747e-05
0.00064544
0.000661816
0.000867642
0.000510597
0.000307345
0.000196738
0.000112781
0.000676572
0.000446246
0.00145931
0.00211993
0.00228887
0.00311302
0.00378045
0.00508865
0.00555344
0.00619607
0.00690381
4.05577e-05
-0.000105646
0.000636675
0.000664632
0.000858154
0.000475749
0.000313578
0.000210142
0.000113835
0.000680153
0.000431415
0.00143789
0.00212212
0.0022384
0.00304211
0.00369157
0.00487355
0.00534264
0.00584363
0.00646479
4.55644e-05
-0.000117314
0.000626942
0.000668122
0.000847252
0.000442509
0.000317659
0.000224858
0.000112078
0.000683994
0.000418149
0.00141079
0.00212512
0.00218242
0.00296064
0.00359882
0.00464649
0.00511631
0.00550231
0.00602491
5.13317e-05
-0.000130236
0.000615986
0.000672446
0.00083476
0.00041119
0.000319386
0.000240962
0.000107704
0.00068713
0.000407773
0.00137693
0.00212811
0.00212215
0.00286584
0.00350203
0.00441083
0.00487232
0.00517263
0.00558922
5.795e-05
-0.000144463
0.000603535
0.000677793
0.000820479
0.000382096
0.000318636
0.000258627
0.000101171
0.000688269
0.000401393
0.00133585
0.00212948
0.00205965
0.00275551
0.00339957
0.00417115
0.0046096
0.00485335
0.00516391
6.55112e-05
-0.000160033
0.000589273
0.000684397
0.000804205
0.000355458
0.000315423
0.000279735
9.32916e-05
0.000686121
0.000399302
0.00128747
0.00212697
0.00199683
0.00262866
0.00328919
0.00393184
0.00432846
0.004541
0.00475537
7.41036e-05
-0.000176946
0.000572787
0.000692504
0.000785779
0.000331383
0.00030995
0.000297341
8.51453e-05
0.000679622
0.000401474
0.00123242
0.00211771
0.00193463
0.00248546
0.00316834
0.00369672
0.00403104
0.00423031
0.00436909
8.37767e-05
-0.000195127
0.000553643
0.000702346
0.000765075
0.000309903
0.000302591
0.000313722
7.78662e-05
0.000667914
0.000406911
0.00117213
0.00209881
0.00187313
0.00232737
0.0030343
0.00346877
0.0037214
0.00391454
0.00400772
9.45854e-05
-0.000214443
0.000531321
0.000714124
0.000742071
0.000290872
0.000293934
0.000327912
7.2472e-05
0.000650492
0.000414105
0.00110842
0.00206833
0.00181196
0.00215678
0.00288452
0.00324932
0.00340532
0.00358688
0.00366836
0.000106593
-0.000234721
0.000505171
0.000727972
0.000716957
0.000273881
0.000284921
0.000338659
6.93657e-05
0.000627529
0.000420972
0.00104257
0.00202512
0.00175044
0.00197655
0.00271706
0.00303778
0.00308999
0.00324355
0.00334193
0.000119761
-0.000255653
0.000474556
0.000743878
0.00069007
0.00025834
0.000276853
0.000344812
6.82203e-05
0.000599814
0.000425405
0.000974872
0.00196832
0.00168759
0.00178999
0.00253129
0.00283208
0.00278194
0.00288555
0.00301556
0.000134021
-0.000276831
0.000438827
0.000761662
0.000662003
0.00024332
0.000271188
0.000345833
6.80014e-05
0.000568589
0.000425491
0.000905101
0.0018978
0.00162266
0.00159993
0.00232728
0.00262928
0.00248598
0.00251838
0.00267697
0.00014928
-0.000297856
0.000397359
0.000780892
0.000633672
0.00022744
0.000269238
0.000341832
6.6837e-05
0.000535307
0.000420106
0.000831964
0.00181411
0.0015558
0.00140856
0.00210486
0.0024261
0.00220492
0.00214981
0.00231976
0.000165327
-0.000318102
0.000349722
0.000800785
0.00060622
0.000209154
0.00027186
0.000333681
6.22218e-05
0.00050089
0.00040875
0.000753582
0.00171772
0.00148787
0.00121842
0.0018639
0.00221891
0.00193949
0.00178683
0.00194519
0.00018186
-0.000336689
0.000295648
0.000820307
0.000581049
0.000187029
0.000279423
0.000323127
5.14777e-05
0.000465262
0.000392041
0.00066828
0.00160795
0.00141921
0.00103307
0.00160479
0.00200351
0.00168986
0.00143499
0.00155926
0.000198531
-0.000352752
0.000235141
0.000838031
0.00055965
0.000160102
0.000291338
0.000312367
3.23264e-05
0.000427658
0.000371768
0.000576156
0.00148346
0.00134863
0.000856779
0.00132918
0.00177463
0.00145601
0.00109943
0.00116885
0.000214967
-0.000365834
0.000168544
0.000852168
0.000543317
0.000127959
0.000305817
0.000304076
3.37378e-06
0.000386054
0.000350268
0.000478003
0.00134254
0.00127338
0.000693838
0.00104146
0.00152588
0.00123543
0.000785714
0.000780416
0.00023069
-0.000375309
9.66894e-05
0.000860687
0.000532959
9.07873e-05
0.000319944
0.000300886
-3.54854e-05
0.000336941
0.000329234
0.000377087
0.00118421
0.00118858
0.000546723
0.000748899
0.00125214
0.00102148
0.000499248
0.000401466
0.0002451
-0.000380297
2.07933e-05
0.000861249
0.000529082
4.96236e-05
0.000330607
0.000304319
-8.28331e-05
0.000276306
0.000308585
0.000278962
0.00100948
0.00108799
0.000414548
0.000460325
0.000952863
0.00080428
0.000242309
4.1286e-05
0.000257498
-0.000380115
-5.7597e-05
0.000851517
0.000531721
6.03135e-06
0.000334624
0.000314952
-0.000135365
0.000200794
0.000286598
0.000188536
0.000820732
0.000966334
0.00029389
0.00018379
0.000632254
0.000573561
1.15784e-05
-0.000290525
0.000267065
-0.00037437
-0.00013643
0.00082939
0.000540029
-3.79388e-05
0.0003289
0.000332358
-0.000188654
0.000108374
0.000259233
0.000109077
0.000622295
0.000820118
0.000179732
-7.47802e-05
0.000297326
0.00032138
-0.000201683
-0.000586692
0.000272999
-0.000362749
-0.000213376
0.000792938
0.00055233
-7.99148e-05
0.000311233
0.000354404
-0.000237658
-5.92065e-07
0.000219953
4.16789e-05
0.000421215
0.00064812
6.5406e-05
-0.000311529
-4.31359e-05
4.38786e-05
-0.000409578
-0.000846125
0.00027468
-0.000345274
-0.000286133
0.000740919
0.000566216
-0.000117492
0.00028031
0.000377398
-0.000277903
-0.000124309
0.000162188
-1.60745e-05
0.000225545
0.000452132
-5.65571e-05
-0.000524945
-0.000379376
-0.000258074
-0.000624544
-0.00107551
0.000271737
-0.000322566
-0.000352643
0.000672884
0.000578745
-0.000148255
0.000236035
0.000396494
-0.00030683
-0.000257822
8.239e-05
-6.87959e-05
4.09279e-05
0.000236546
-0.000193163
-0.000716737
-0.00070198
-0.000579726
-0.000856288
-0.00128616
0.00026388
-0.000295653
-0.000410908
0.000590241
0.000586246
-0.000170681
0.000179251
0.000406465
-0.000321148
-0.000394264
-1.9838e-05
-0.000122515
-0.000130179
7.02093e-06
-0.000349463
-0.000892036
-0.00100242
-0.000912436
-0.00111025
-0.00149135
0.000251033
-0.000266294
-0.000458835
0.000495349
0.000584425
-0.000184788
0.000112566
0.000402787
-0.000327723
-0.000527135
-0.000143001
-0.000182131
-0.000286874
-0.000230746
-0.000528118
-0.00105867
-0.00127499
-0.00124433
-0.00138644
-0.00170349
0.000233498
-0.000236771
-0.000494871
0.000391851
0.00056911
-0.000191592
4.00765e-05
0.000382499
-0.000328679
-0.000652489
-0.000283151
-0.000251163
-0.000428828
-0.000470811
-0.000730298
-0.0012251
-0.00151888
-0.00156341
-0.0016786
-0.00193092
0.000211711
-0.000209287
-0.000518109
0.000284314
0.000537131
-0.000179913
-3.31109e-05
0.000344923
-0.00033012
-0.000768917
-0.000436371
-0.000332313
-0.000556529
-0.000706669
-0.000955507
-0.00139948
-0.00173764
-0.00185968
-0.00197559
-0.00217493
0.000186297
-0.000185618
-0.000528987
0.000177253
0.000486217
-0.000185476
-0.000103861
0.000291781
-0.000336601
-0.000876772
-0.000599905
-0.000427034
-0.000670857
-0.000931747
-0.00120023
-0.00159047
-0.00193925
-0.00212684
-0.00226607
-0.00243033
0.000157997
-0.000167004
-0.000529476
7.46277e-05
0.000416372
-0.000197872
-0.000171861
0.000228474
-0.000349576
-0.00097932
-0.000772314
-0.000536225
-0.000772619
-0.00113909
-0.00145675
-0.00180528
-0.0021348
-0.00236396
-0.00253889
-0.00268846
0.000127459
-0.000154236
-0.000522625
-2.05334e-05
0.000330893
-0.000221989
-0.000238411
0.000158703
-0.000368532
-0.00107824
-0.000954305
-0.000661719
-0.000864413
-0.00132133
-0.00171538
-0.00204556
-0.0023376
-0.00257832
-0.00278454
-0.00293854
9.53448e-05
-0.000147743
-0.000511879
-0.000106659
0.000235251
-0.000260352
-0.00030939
8.28163e-05
-0.000389934
-0.00117241
-0.00114751
-0.000808356
-0.000950799
-0.00147256
-0.00196375
-0.00230594
-0.00255926
-0.0027827
-0.00300234
-0.00316948
6.22832e-05
-0.000147558
-0.000500611
-0.000183452
0.000134661
-0.000313584
-0.000389939
-1.50702e-07
-0.000411719
-0.00125688
-0.0013495
-0.000983913
-0.00103924
-0.00159125
-0.00218659
-0.00257493
-0.00280439
-0.00299193
-0.00320185
-0.00337546
2.86483e-05
-0.000153402
-0.00049185
-0.000251665
3.34245e-05
-0.000380056
-0.000482944
-9.50722e-05
-0.000434739
-0.00132287
-0.0015547
-0.00119444
-0.00114401
-0.0016822
-0.00237103
-0.00283796
-0.00306875
-0.00321672
-0.00339536
-0.00356089
-5.51175e-06
-0.000164663
-0.000487888
-0.000313534
-6.48491e-05
-0.000455533
-0.000589805
-0.000207417
-0.000462324
-0.00136652
-0.00175004
-0.00143706
-0.00128324
-0.00175523
-0.00250997
-0.00307647
-0.00334148
-0.00346069
-0.00359448
-0.00373476
-4.03855e-05
-0.000180415
-0.000489906
-0.000372496
-0.000158775
-0.000534239
-0.000710448
-0.000341502
-0.000501904
-0.00138927
-0.0019182
-0.00170256
-0.00147017
-0.00183135
-0.0026066
-0.00327337
-0.00360784
-0.00372021
-0.00380573
-0.00390653
-7.66612e-05
-0.00019991
-0.000498555
-0.000431985
-0.00024804
-0.000611364
-0.00084109
-0.000500073
-0.000561904
-0.00139525
-0.00204909
-0.00197239
-0.00170481
-0.00193616
-0.00267302
-0.00341897
-0.00384732
-0.00398564
-0.0040318
-0.00408319
-0.000115037
-0.00022305
-0.000516549
-0.000494833
-0.000334826
-0.000683169
-0.000973187
-0.000681679
-0.000651388
-0.00139436
-0.00214085
-0.00222202
-0.00197543
-0.00208755
-0.00273351
-0.00351839
-0.00404156
-0.00424071
-0.00427008
-0.00426862
-0.000155941
-0.000250018
-0.000533865
-0.000561664
-0.000424844
-0.000748805
-0.00109747
-0.000881782
-0.000776807
-0.00140125
-0.00219704
-0.00243579
-0.00226209
-0.00228732
-0.0028146
-0.00358615
-0.00418585
-0.00446423
-0.00451028
-0.00446464
-0.000199738
-0.000281335
-0.000554766
-0.000631999
-0.000521847
-0.000811103
-0.00120703
-0.00108903
-0.000938369
-0.00143083
-0.00222557
-0.00260557
-0.00253975
-0.00252438
-0.00293195
-0.00364616
-0.00428927
-0.00464344
-0.00473476
-0.00466811
-0.00024658
-0.00031767
-0.000579418
-0.00070421
-0.000626939
-0.000876938
-0.00130027
-0.0012892
-0.00113126
-0.0014946
-0.00224219
-0.00273149
-0.00278917
-0.00278221
-0.00308855
-0.00371682
-0.00436677
-0.00478112
-0.00492755
-0.0048689
-0.000296526
-0.000359779
-0.000608171
-0.000776443
-0.00073938
-0.000952264
-0.00137995
-0.00147109
-0.00134494
-0.00159787
-0.002265
-0.0028203
-0.00299829
-0.00303736
-0.00327618
-0.00380943
-0.00443403
-0.00488628
-0.00508256
-0.00505124
-0.000349656
-0.00040811
-0.000642067
-0.000847298
-0.000857454
-0.00104002
-0.0014528
-0.00163128
-0.00156367
-0.00173716
-0.00230747
-0.00288452
-0.00316516
-0.00326964
-0.00348014
-0.00392673
-0.00450127
-0.00497011
-0.00520362
-0.00520324
-0.000405994
-0.000462773
-0.000682627
-0.000916401
-0.000977724
-0.00114119
-0.00152652
-0.00177108
-0.00177407
-0.0019043
-0.00237779
-0.00293992
-0.00329574
-0.00346809
-0.00367864
-0.00406113
-0.00457434
-0.00503935
-0.00529887
-0.00532299
-0.000465609
-0.000523531
-0.000731102
-0.000984755
-0.00109637
-0.00125417
-0.00160787
-0.00189469
-0.00196877
-0.00208705
-0.00247653
-0.00299879
-0.00339804
-0.00363088
-0.00385598
-0.00419858
-0.00465182
-0.00509499
-0.00537115
-0.00541337
-0.000528726
-0.000589841
-0.00078785
-0.00105386
-0.00121164
-0.00137598
-0.00170034
-0.00200902
-0.00214654
-0.00227353
-0.00259852
-0.00306814
-0.00348161
-0.00376097
-0.00400472
-0.00432306
-0.0047267
-0.00513594
-0.00541737
-0.00547527
-0.000595554
-0.000661058
-0.000852597
-0.00112543
-0.00132323
-0.00150344
-0.00180489
-0.00212133
-0.0023099
-0.00245692
-0.00273753
-0.00315108
-0.00355469
-0.00386103
-0.00412131
-0.0044233
-0.00478694
-0.00515862
-0.00543354
-0.00550448
-0.000666129
-0.00073659
-0.000924703
-0.00120103
-0.00143177
-0.00163334
-0.00192067
-0.00223773
-0.00246405
-0.00263462
-0.00288719
-0.00324836
-0.00362448
-0.00393591
-0.00420324
-0.00448992
-0.00481861
-0.00515193
-0.00540994
-0.0054888
-0.000740293
-0.00081605
-0.00100316
-0.00128126
-0.00153848
-0.00176373
-0.0020457
-0.002361
-0.00261516
-0.00280925
-0.00304431
-0.00335977
-0.00369814
-0.00399337
-0.00424959
-0.0045123
-0.00480374
-0.00509595
-0.00532712
-0.00540617
-0.000817694
-0.000898937
-0.00108704
-0.00136628
-0.00164422
-0.00189335
-0.00217805
-0.0024924
-0.00276716
-0.00298418
-0.00321109
-0.00348846
-0.00378437
-0.00404625
-0.00426829
-0.00448412
-0.00471918
-0.00495541
-0.00514511
-0.00521321
-0.000897759
-0.000984599
-0.00117492
-0.00145574
-0.00175005
-0.00202169
-0.00231512
-0.00263218
-0.00292353
-0.00316237
-0.00339062
-0.00363954
-0.00389363
-0.00411414
-0.00428257
-0.00441788
-0.00455333
-0.00468592
-0.00478669
-0.00480831
-0.000979909
-0.00107228
-0.001265
-0.00154877
-0.00185646
-0.00214897
-0.00245508
-0.00277917
-0.00308578
-0.00334598
-0.00358445
-0.00381711
-0.00403322
-0.00420607
-0.00430941
-0.00433789
-0.00432057
-0.00427175
-0.00417653
-0.00403637
-0.00106312
-0.00116065
-0.00135657
-0.00164335
-0.00196289
-0.00227545
-0.00259638
-0.00293195
-0.00325359
-0.00353183
-0.00378249
-0.0040116
-0.0042021
-0.00432058
-0.00433036
-0.00418975
-0.00390625
-0.00356115
-0.00324063
-0.00303006
-0.00114591
-0.00124809
-0.00144817
-0.00173841
-0.0020686
-0.00239833
-0.00273706
-0.00308834
-0.00342557
-0.00371699
-0.0039617
-0.0041609
-0.00429515
-0.00430664
-0.0041579
-0.00384436
-0.00342157
-0.00301484
-0.00272459
-0.0026211
-0.00122641
-0.00133275
-0.00153766
-0.00183286
-0.00217234
-0.00251588
-0.00287013
-0.00323725
-0.00359341
-0.0038972
-0.00412083
-0.00424741
-0.0042713
-0.00414221
-0.00385809
-0.00348337
-0.00307338
-0.00271763
-0.00250026
-0.00248287
-0.00130189
-0.00141263
-0.00162201
-0.00192376
-0.00227307
-0.00262816
-0.00299087
-0.00335881
-0.00371629
-0.00403344
-0.00426266
-0.00433884
-0.00425485
-0.00400566
-0.00361115
-0.00317577
-0.00276656
-0.00243608
-0.0022445
-0.00225562
-0.00136962
-0.00148476
-0.00169854
-0.00200523
-0.00236377
-0.00273363
-0.00310562
-0.00346573
-0.00377943
-0.00400582
-0.00415043
-0.00418502
-0.00412896
-0.00400855
-0.00375813
-0.00339059
-0.0029884
-0.00262515
-0.00238748
-0.00235565
-0.00142682
-0.00154533
-0.00176497
-0.00207378
-0.00243515
-0.00280947
-0.00318224
-0.00355065
-0.003899
-0.00416411
-0.00430466
-0.00428063
-0.00407191
-0.00375585
-0.00337873
-0.00296642
-0.00258823
-0.00230033
-0.00215882
-0.00221659
-0.00147221
-0.00159745
-0.00182359
-0.00213831
-0.0025086
-0.00289518
-0.00327759
-0.00363547
-0.00395433
-0.00417649
-0.00427165
-0.00423249
-0.00404218
-0.00373695
-0.00337951
-0.00299762
-0.00264499
-0.0023799
-0.002257
-0.00233189
0.0223443
0.0144264
0.00435437
-0.00287011
-0.00559031
-0.00547319
-0.00486003
-0.00471121
-0.00500778
-0.00541389
-0.00573613
-0.0059619
-0.00611015
-0.00624333
-0.00643641
-0.00668802
-0.00696605
-0.00723544
-0.00746337
-0.00767814
-0.00792705
-0.00820888
-0.00849453
-0.00875363
-0.00899201
-0.00925959
-0.00956797
-0.00986975
-0.0101685
-0.010503
-0.0108611
-0.0112291
-0.0116035
-0.0119475
-0.0122497
-0.0125558
-0.0128852
-0.0132069
-0.0135112
-0.0138135
-0.0141265
-0.0144528
-0.0147853
-0.0151331
-0.0154951
-0.0158565
-0.0162157
-0.0165795
-0.0169452
-0.0173131
-0.0176891
-0.0180745
-0.0184657
-0.0188696
-0.0192839
-0.0196975
-0.0201136
-0.0205398
-0.0209771
-0.0214139
-0.0218555
-0.022306
-0.022762
-0.0232295
-0.0237093
-0.0241842
-0.0246609
-0.0251477
-0.0256518
-0.0261723
-0.0266859
-0.0271984
-0.0277376
-0.0282782
-0.0287902
-0.0293132
-0.029869
-0.0304356
-0.0310017
-0.0315744
-0.0321558
-0.0327358
-0.0333279
-0.0339309
-0.0345515
-0.0351843
-0.0358242
-0.0364792
-0.037133
-0.0378045
-0.0384772
-0.0391612
-0.039857
-0.0405569
-0.0412742
-0.0419943
-0.0427265
-0.0434537
-0.0441311
-0.0448135
0.0210073
0.0142398
0.00443794
-0.00273452
-0.00550148
-0.00542822
-0.00483178
-0.00469194
-0.00499452
-0.0054043
-0.00572874
-0.00595594
-0.00610501
-0.00623855
-0.0064319
-0.00668385
-0.00696227
-0.00723207
-0.00746029
-0.00767518
-0.00792424
-0.00820626
-0.00849212
-0.0087514
-0.00898987
-0.00925754
-0.00956609
-0.00986804
-0.0101669
-0.0105015
-0.0108597
-0.0112278
-0.0116023
-0.0119464
-0.0122486
-0.0125548
-0.0128843
-0.0132061
-0.0135104
-0.0138128
-0.0141258
-0.0144522
-0.0147847
-0.0151325
-0.0154945
-0.015856
-0.0162152
-0.0165791
-0.0169447
-0.0173126
-0.0176887
-0.0180741
-0.0184653
-0.0188692
-0.0192835
-0.0196972
-0.0201132
-0.0205395
-0.0209768
-0.0214136
-0.0218552
-0.0223058
-0.0227617
-0.0232292
-0.0237091
-0.024184
-0.0246607
-0.0251475
-0.0256516
-0.0261722
-0.0266858
-0.0271983
-0.0277375
-0.0282781
-0.0287901
-0.0293131
-0.0298689
-0.0304355
-0.0310017
-0.0315743
-0.0321558
-0.0327358
-0.0333279
-0.0339309
-0.0345514
-0.0351843
-0.0358241
-0.0364791
-0.0371329
-0.0378045
-0.0384772
-0.0391612
-0.039857
-0.0405569
-0.0412742
-0.0419943
-0.0427265
-0.0434537
-0.044131
-0.0448135
0.019934
0.0141263
0.00464219
-0.00247197
-0.00534971
-0.00537067
-0.00480392
-0.00467021
-0.00497647
-0.00538986
-0.00571748
-0.00594748
-0.00609876
-0.0062337
-0.00642778
-0.00668003
-0.00695867
-0.00722883
-0.00745741
-0.00767255
-0.00792179
-0.00820396
-0.00848998
-0.0087494
-0.00898795
-0.0092557
-0.0095644
-0.00986646
-0.0101654
-0.0105001
-0.0108584
-0.0112266
-0.0116012
-0.0119454
-0.0122477
-0.0125539
-0.0128834
-0.0132053
-0.0135097
-0.0138121
-0.0141251
-0.0144516
-0.0147841
-0.015132
-0.015494
-0.0158555
-0.0162147
-0.0165787
-0.0169443
-0.0173122
-0.0176883
-0.0180738
-0.018465
-0.0188689
-0.0192832
-0.0196969
-0.0201129
-0.0205392
-0.0209765
-0.0214134
-0.021855
-0.0223055
-0.0227615
-0.023229
-0.0237089
-0.0241838
-0.0246605
-0.0251474
-0.0256515
-0.026172
-0.0266856
-0.0271982
-0.0277374
-0.028278
-0.02879
-0.029313
-0.0298688
-0.0304354
-0.0310016
-0.0315743
-0.0321557
-0.0327358
-0.0333279
-0.0339308
-0.0345514
-0.0351842
-0.0358241
-0.0364791
-0.0371329
-0.0378044
-0.0384772
-0.0391612
-0.039857
-0.0405569
-0.0412742
-0.0419943
-0.0427265
-0.0434537
-0.0441311
-0.0448136
0.0189602
0.0139869
0.00488015
-0.00215437
-0.0051511
-0.00529367
-0.00476549
-0.00463815
-0.0049484
-0.00536665
-0.00569881
-0.00593317
-0.00608865
-0.00622697
-0.00642293
-0.00667565
-0.00695422
-0.00722462
-0.00745385
-0.00766968
-0.00791931
-0.00820156
-0.00848764
-0.00874724
-0.00898594
-0.00925376
-0.00956252
-0.00986463
-0.0101636
-0.0104985
-0.010857
-0.0112253
-0.0116001
-0.0119444
-0.0122467
-0.0125529
-0.0128825
-0.0132045
-0.0135089
-0.0138114
-0.0141244
-0.0144509
-0.0147835
-0.0151314
-0.0154935
-0.0158551
-0.0162143
-0.0165782
-0.0169439
-0.0173118
-0.0176879
-0.0180734
-0.0184646
-0.0188685
-0.0192829
-0.0196966
-0.0201126
-0.0205389
-0.0209762
-0.0214131
-0.0218547
-0.0223053
-0.0227613
-0.0232288
-0.0237087
-0.0241836
-0.0246604
-0.0251472
-0.0256513
-0.0261719
-0.0266855
-0.027198
-0.0277373
-0.0282779
-0.0287899
-0.0293129
-0.0298687
-0.0304354
-0.0310015
-0.0315742
-0.0321557
-0.0327357
-0.0333278
-0.0339308
-0.0345514
-0.0351842
-0.0358241
-0.0364791
-0.0371329
-0.0378044
-0.0384772
-0.0391612
-0.039857
-0.0405569
-0.0412742
-0.0419943
-0.0427265
-0.0434537
-0.0441311
-0.0448137
0.0179831
0.0137782
0.00511041
-0.00182472
-0.00493663
-0.00520825
-0.00472221
-0.004599
-0.00491135
-0.00533436
-0.00567173
-0.00591155
-0.0060731
-0.00621704
-0.00641647
-0.00667014
-0.00694836
-0.00721875
-0.00744895
-0.00766612
-0.00791652
-0.00819882
-0.00848485
-0.00874476
-0.00898384
-0.00925175
-0.00956037
-0.00986236
-0.0101614
-0.0104965
-0.0108552
-0.0112237
-0.0115986
-0.011943
-0.0122454
-0.0125517
-0.0128814
-0.0132034
-0.0135079
-0.0138104
-0.0141236
-0.0144501
-0.0147827
-0.0151307
-0.0154929
-0.0158545
-0.0162137
-0.0165777
-0.0169435
-0.0173114
-0.0176875
-0.018073
-0.0184642
-0.0188681
-0.0192825
-0.0196962
-0.0201123
-0.0205386
-0.0209759
-0.0214128
-0.0218544
-0.022305
-0.022761
-0.0232285
-0.0237084
-0.0241834
-0.0246601
-0.025147
-0.0256511
-0.0261717
-0.0266853
-0.0271979
-0.0277371
-0.0282778
-0.0287898
-0.0293128
-0.0298686
-0.0304353
-0.0310015
-0.0315742
-0.0321556
-0.0327356
-0.0333278
-0.0339307
-0.0345513
-0.0351842
-0.035824
-0.0364791
-0.0371329
-0.0378044
-0.0384772
-0.0391612
-0.039857
-0.0405569
-0.0412742
-0.0419943
-0.0427265
-0.0434538
-0.0441312
-0.0448138
0.0170056
0.0135074
0.00533187
-0.00148937
-0.00471316
-0.00511886
-0.00467887
-0.00455782
-0.00486974
-0.00529664
-0.00563908
-0.00588453
-0.00605308
-0.00620406
-0.00640815
-0.00666324
-0.00694095
-0.00721108
-0.00744252
-0.00766164
-0.00791318
-0.00819547
-0.00848136
-0.0087418
-0.00898168
-0.00924979
-0.00955807
-0.00985978
-0.0101589
-0.0104941
-0.010853
-0.0112215
-0.0115964
-0.011941
-0.0122437
-0.0125502
-0.0128799
-0.013202
-0.0135066
-0.0138092
-0.0141224
-0.0144491
-0.0147817
-0.0151298
-0.0154921
-0.0158537
-0.0162131
-0.0165772
-0.016943
-0.0173109
-0.017687
-0.0180725
-0.0184637
-0.0188677
-0.0192821
-0.0196958
-0.0201119
-0.0205382
-0.0209755
-0.0214124
-0.0218541
-0.0223047
-0.0227607
-0.0232282
-0.0237081
-0.0241831
-0.0246599
-0.0251467
-0.0256508
-0.0261714
-0.0266851
-0.0271977
-0.027737
-0.0282776
-0.0287897
-0.0293126
-0.0298685
-0.0304352
-0.0310014
-0.0315741
-0.0321555
-0.0327356
-0.0333277
-0.0339307
-0.0345512
-0.0351841
-0.035824
-0.036479
-0.0371328
-0.0378044
-0.0384772
-0.0391612
-0.0398569
-0.0405569
-0.0412742
-0.0419943
-0.0427265
-0.0434538
-0.0441313
-0.0448141
0.0160444
0.0131868
0.00554386
-0.00114961
-0.00448099
-0.00502533
-0.00463628
-0.00451647
-0.00482569
-0.0052558
-0.00560335
-0.00585456
-0.00603043
-0.00618907
-0.00639835
-0.00665511
-0.00693222
-0.007202
-0.00743487
-0.0076563
-0.00790917
-0.00819135
-0.00847698
-0.00873821
-0.00897937
-0.00924789
-0.00955571
-0.00985707
-0.0101562
-0.0104916
-0.0108505
-0.0112189
-0.0115935
-0.0119381
-0.0122413
-0.0125481
-0.012878
-0.0132002
-0.0135049
-0.0138078
-0.014121
-0.0144477
-0.0147805
-0.0151287
-0.015491
-0.0158528
-0.0162122
-0.0165764
-0.0169423
-0.0173103
-0.0176864
-0.0180719
-0.0184632
-0.0188672
-0.0192816
-0.0196954
-0.0201115
-0.0205378
-0.0209751
-0.021412
-0.0218537
-0.0223043
-0.0227603
-0.0232278
-0.0237077
-0.0241827
-0.0246595
-0.0251464
-0.0256505
-0.0261711
-0.0266848
-0.0271974
-0.0277367
-0.0282774
-0.0287894
-0.0293124
-0.0298683
-0.030435
-0.0310012
-0.0315739
-0.0321554
-0.0327354
-0.0333276
-0.0339306
-0.0345512
-0.0351841
-0.0358239
-0.036479
-0.0371328
-0.0378043
-0.0384771
-0.0391611
-0.0398569
-0.0405569
-0.0412742
-0.0419943
-0.0427265
-0.0434539
-0.0441315
-0.0448144
0.0151121
0.0128205
0.00573999
-0.000807711
-0.00423946
-0.00492631
-0.00459423
-0.00447567
-0.00478003
-0.00521262
-0.00556554
-0.00582279
-0.00600621
-0.00617276
-0.00638747
-0.00664602
-0.00692256
-0.00719199
-0.00742644
-0.00765037
-0.00790459
-0.00818651
-0.00847176
-0.00873395
-0.00897675
-0.0092459
-0.00955327
-0.00985433
-0.0101536
-0.0104891
-0.0108481
-0.011216
-0.01159
-0.0119344
-0.0122381
-0.0125454
-0.0128754
-0.0131977
-0.0135029
-0.0138061
-0.0141194
-0.0144461
-0.014779
-0.0151272
-0.0154896
-0.0158515
-0.0162111
-0.0165755
-0.0169415
-0.0173095
-0.0176856
-0.0180712
-0.0184625
-0.0188666
-0.0192811
-0.0196949
-0.020111
-0.0205372
-0.0209745
-0.0214114
-0.0218531
-0.0223038
-0.0227598
-0.0232273
-0.0237072
-0.0241822
-0.0246591
-0.025146
-0.02565
-0.0261707
-0.0266844
-0.0271971
-0.0277364
-0.0282771
-0.0287891
-0.0293121
-0.029868
-0.0304348
-0.031001
-0.0315737
-0.0321552
-0.0327353
-0.0333274
-0.0339304
-0.034551
-0.035184
-0.0358238
-0.0364789
-0.0371327
-0.0378043
-0.0384771
-0.0391611
-0.0398569
-0.0405568
-0.0412741
-0.0419943
-0.0427265
-0.0434539
-0.0441318
-0.0448148
0.0142169
0.0124095
0.00591286
-0.000465654
-0.00398732
-0.00481995
-0.00455215
-0.00443602
-0.00473336
-0.00516743
-0.00552598
-0.00578964
-0.00598081
-0.00615545
-0.00637577
-0.00663626
-0.00691229
-0.00718141
-0.0074175
-0.00764402
-0.00789958
-0.00818113
-0.0084659
-0.00872912
-0.00897378
-0.00924371
-0.00955069
-0.00985157
-0.0101511
-0.010487
-0.0108461
-0.0112134
-0.0115862
-0.0119301
-0.0122341
-0.0125419
-0.012872
-0.0131946
-0.0135004
-0.0138041
-0.0141176
-0.0144443
-0.0147773
-0.0151255
-0.0154879
-0.0158498
-0.0162096
-0.0165744
-0.0169406
-0.0173086
-0.0176847
-0.0180703
-0.0184617
-0.0188658
-0.0192803
-0.0196942
-0.0201104
-0.0205366
-0.0209738
-0.0214107
-0.0218525
-0.0223033
-0.0227593
-0.0232266
-0.0237065
-0.0241815
-0.0246585
-0.0251454
-0.0256494
-0.02617
-0.0266839
-0.0271967
-0.027736
-0.0282766
-0.0287887
-0.0293117
-0.0298677
-0.0304344
-0.0310007
-0.0315735
-0.032155
-0.032735
-0.0333272
-0.0339302
-0.0345508
-0.0351838
-0.0358237
-0.0364788
-0.0371326
-0.0378042
-0.038477
-0.039161
-0.0398568
-0.0405568
-0.0412741
-0.0419942
-0.0427265
-0.043454
-0.0441321
-0.0448153
0.0133647
0.0119573
0.00605614
-0.000125135
-0.00372319
-0.00470432
-0.00450943
-0.00439826
-0.00468647
-0.00512055
-0.0054848