/*--------------------------------*- C++ -*----------------------------------*\
| =========                 |                                                 |
| \\      /  F ield         | OpenFOAM: The Open Source CFD Toolbox           |
|  \\    /   O peration     | Version:  2106                                  |
|   \\  /    A nd           | Website:  www.openfoam.com                      |
|    \\/     M anipulation  |                                                 |
\*---------------------------------------------------------------------------*/
FoamFile
{
    version     2.0;
    format      ascii;
    arch        "LSB;label=32;scalar=64";
    class       volScalarField;
    location    "0.31";
    object      p;
}
// * * * * * * * * * * * * * * * * * * * * * * * * * * * * * * * * * * * * * //

dimensions      [0 2 -2 0 0 0 0];

internalField   nonuniform List<scalar> 
9600
(
4.26498e-11
-0.000915466
-0.000617109
-0.00017707
-0.00265384
-0.00177632
-0.000890762
-0.000612589
-0.00142175
-0.000539619
-0.00142817
7.29772e-05
-0.000445952
0.000673465
0.00084578
0.0015535
0.00190315
0.00402998
0.00565814
0.0106496
-1.99362e-07
-0.000917319
-0.000613733
-0.000190627
-0.00263622
-0.00177545
-0.00089972
-0.000606117
-0.00142033
-0.000539267
-0.00142009
6.84152e-05
-0.000445562
0.00066686
0.000848657
0.00154955
0.00192267
0.00400439
0.00572187
0.0100549
-1.21897e-06
-0.000919768
-0.00061108
-0.000207878
-0.00261463
-0.00177375
-0.000906178
-0.000597405
-0.00142066
-0.000534394
-0.00140814
5.63783e-05
-0.000441154
0.000656464
0.000855157
0.00154433
0.00193938
0.00397004
0.00572233
0.0094874
-3.27671e-06
-0.000922954
-0.000610256
-0.000227627
-0.00259206
-0.00176672
-0.000910111
-0.000593099
-0.00142401
-0.000526343
-0.00139268
4.06108e-05
-0.000433341
0.000644612
0.00086234
0.00153413
0.00195636
0.00392303
0.00570819
0.00895947
-6.46588e-06
-0.000927224
-0.000610481
-0.000250007
-0.002567
-0.00175539
-0.000914349
-0.000593724
-0.00142966
-0.000516708
-0.00137332
2.24889e-05
-0.000423852
0.000630153
0.000868965
0.00151905
0.00197358
0.00386555
0.00567488
0.00847185
-1.07431e-05
-0.000932616
-0.000611264
-0.000274355
-0.00253884
-0.00174174
-0.000920327
-0.000597886
-0.00143662
-0.000506863
-0.00135083
2.17128e-06
-0.000413538
0.000613024
0.000876155
0.00149926
0.00199103
0.00379933
0.00562043
0.00801424
-1.5916e-05
-0.000939021
-0.000612353
-0.00029991
-0.0025081
-0.00172744
-0.000928344
-0.000604257
-0.00144382
-0.000497538
-0.0013261
-1.98474e-05
-0.000402282
0.000593846
0.000884786
0.00147544
0.00200859
0.00372586
0.0055427
0.00758267
-2.17391e-05
-0.000946284
-0.000613565
-0.00032628
-0.00247544
-0.00171336
-0.00093801
-0.000611779
-0.00145064
-0.000489132
-0.00129945
-4.30445e-05
-0.000389978
0.000572801
0.000895105
0.001448
0.00202471
0.00364701
0.00543998
0.00717408
-2.8011e-05
-0.000954249
-0.000614807
-0.00035334
-0.00244132
-0.00169977
-0.000948744
-0.000619746
-0.00145688
-0.000481889
-0.00127093
-6.731e-05
-0.000376618
0.000549713
0.000906891
0.00141725
0.00203724
0.00356458
0.00531162
0.00678514
-3.46175e-05
-0.000962801
-0.000616054
-0.000381074
-0.00240598
-0.0016867
-0.000960031
-0.00062782
-0.00146252
-0.00047594
-0.00124059
-9.28223e-05
-0.00036215
0.000524409
0.000919566
0.00138379
0.00204372
0.00348006
0.00515831
0.00641198
-4.15216e-05
-0.000971863
-0.000617305
-0.000409496
-0.00236956
-0.00167407
-0.000971561
-0.000635907
-0.00146764
-0.000471358
-0.00120852
-0.000119794
-0.000346563
0.000496937
0.000932261
0.00134856
0.00204181
0.00339435
0.00498192
0.00605036
-4.87297e-05
-0.000981392
-0.000618577
-0.000438615
-0.00233209
-0.00166181
-0.000983208
-0.000643983
-0.0014723
-0.000468194
-0.00117486
-0.000148363
-0.000330005
0.000467573
0.000944033
0.00131261
0.00202952
0.00330748
0.0047854
0.0056962
-5.62622e-05
-0.000991367
-0.000619897
-0.000468416
-0.00229363
-0.00164989
-0.000994957
-0.000652018
-0.00147654
-0.000466504
-0.00113976
-0.000178542
-0.000312797
0.00043673
0.00095391
0.00127682
0.00200536
0.00321861
0.00457262
0.00534617
-6.41399e-05
-0.00100178
-0.000621297
-0.000498856
-0.00225423
-0.00163824
-0.00100686
-0.000659949
-0.00148042
-0.000466333
-0.00110337
-0.000210262
-0.00029536
0.000404944
0.000960847
0.00124162
0.0019687
0.00312614
0.00434772
0.00499799
-7.23802e-05
-0.00101264
-0.000622814
-0.000529874
-0.00221398
-0.0016268
-0.00101901
-0.000667693
-0.00148397
-0.000467717
-0.0010659
-0.000243361
-0.000278163
0.000372803
0.00096385
0.00120697
0.0019199
0.00302816
0.00411429
0.00465038
-8.09989e-05
-0.00102394
-0.00062449
-0.000561395
-0.00217299
-0.00161547
-0.00103154
-0.000675142
-0.00148725
-0.000470678
-0.00102757
-0.000277579
-0.000261697
0.000340786
0.000962157
0.00117236
0.00185979
0.00292313
0.0038751
0.00430262
-9.00106e-05
-0.0010357
-0.000626371
-0.000593326
-0.0021314
-0.00160413
-0.00104463
-0.000682141
-0.00149034
-0.00047521
-0.000988609
-0.000312669
-0.00024643
0.000309197
0.000955327
0.001137
0.00178902
0.00280988
0.00363249
0.00395444
-9.94287e-05
-0.00104791
-0.000628515
-0.000625552
-0.00208938
-0.00159263
-0.00105845
-0.000688502
-0.00149334
-0.000481338
-0.00094915
-0.000348445
-0.000232709
0.000278081
0.000943174
0.00110011
0.0017077
0.00268814
0.00338908
0.00360599
-0.000109267
-0.00106059
-0.000630992
-0.000657942
-0.00204715
-0.0015808
-0.00107323
-0.000694034
-0.00149631
-0.000489134
-0.00090929
-0.000384805
-0.000220691
0.00024722
0.000925493
0.00106129
0.00161558
0.00255793
0.00314766
0.00325818
-0.000119538
-0.00107373
-0.000633889
-0.000690342
-0.00200493
-0.00156843
-0.00108922
-0.000698543
-0.00149925
-0.000498712
-0.000868997
-0.000421796
-0.000210355
0.000216344
0.00090168
0.00102061
0.00151254
0.00241835
0.00291075
0.00291291
-0.000130257
-0.00108732
-0.000637313
-0.000722561
-0.00196301
-0.0015553
-0.00110665
-0.000701905
-0.00150207
-0.000510304
-0.000828179
-0.00045965
-0.000201525
0.000185466
0.000870539
0.000978748
0.00139913
0.00226773
0.00268025
0.00257315
-0.000141436
-0.00110137
-0.000641398
-0.000754385
-0.00192171
-0.00154114
-0.00112574
-0.000704036
-0.0015046
-0.000524285
-0.000786535
-0.000498861
-0.000194243
0.000155071
0.000830451
0.000936325
0.00127685
0.00210405
0.00245723
0.00224332
-0.000153091
-0.00111583
-0.000646303
-0.000785566
-0.00188141
-0.00152567
-0.00114665
-0.000704959
-0.00150658
-0.000541092
-0.000743483
-0.000540121
-0.000189185
0.00012595
0.000779665
0.000893041
0.00114848
0.00192509
0.00224076
0.0019295
-0.000165242
-0.00113068
-0.000652225
-0.000815813
-0.00184248
-0.00150865
-0.00116946
-0.000704817
-0.00150756
-0.000561452
-0.000698408
-0.000583524
-0.000187656
9.93302e-05
0.000716673
0.000847137
0.00101861
0.00172991
0.00202739
0.00163726
-0.000177911
-0.00114584
-0.000659404
-0.000844818
-0.0018053
-0.0014899
-0.00119419
-0.000703861
-0.001507
-0.000586383
-0.000650765
-0.000628328
-0.00019164
7.68632e-05
0.000641047
0.000795599
0.000892373
0.00152052
0.0018114
0.00136948
-0.000191129
-0.00116122
-0.00066813
-0.000872258
-0.00177021
-0.00146927
-0.00122075
-0.000702608
-0.001504
-0.000616802
-0.000600548
-0.000674058
-0.000203668
6.00749e-05
0.000553893
0.000734228
0.000773697
0.00130184
0.00158558
0.00112455
-0.00020494
-0.00117667
-0.000678734
-0.000897833
-0.00173752
-0.00144667
-0.00124892
-0.000701777
-0.00149735
-0.000653507
-0.000548532
-0.000719929
-0.000226488
4.95461e-05
0.000457651
0.000658393
0.000664095
0.00108067
0.00134459
0.000896767
-0.000219403
-0.00119203
-0.000691576
-0.000921285
-0.00170752
-0.00142215
-0.00127818
-0.000702352
-0.0014858
-0.000696904
-0.000496199
-0.000764001
-0.000262717
4.44153e-05
0.000356294
0.000564095
0.000562057
0.000865241
0.00108775
0.000676893
-0.000234599
-0.00120707
-0.000707021
-0.000942399
-0.00168044
-0.00139592
-0.00130765
-0.000705601
-0.00146843
-0.00074687
-0.000445506
-0.000803775
-0.000314349
4.23211e-05
0.000254872
0.00044893
0.000463467
0.000663973
0.00081973
0.000452953
-0.000250625
-0.00122153
-0.000725412
-0.000961078
-0.00165636
-0.00136837
-0.00133628
-0.000712748
-0.0014451
-0.000802541
-0.000398696
-0.000835007
-0.000382124
3.93945e-05
0.000158768
0.000313065
0.000362265
0.000483148
0.000549924
0.000214035
-0.000267611
-0.00123511
-0.000747036
-0.000977343
-0.0016352
-0.00134009
-0.00136294
-0.000724763
-0.00141544
-0.000862786
-0.000356094
-0.00085269
-0.00046527
3.05893e-05
7.28659e-05
0.000159803
0.00025078
0.000324006
0.000289674
-4.37899e-05
-0.000285718
-0.00124751
-0.000772134
-0.000991353
-0.00161679
-0.00131185
-0.00138647
-0.000742254
-0.00137814
-0.000926583
-0.000325177
-0.000857584
-0.00056186
1.01034e-05
6.27311e-07
-5.10703e-06
0.000121803
0.000182097
5.00828e-05
-0.000314861
-0.000305116
-0.00125838
-0.000800838
-0.00100349
-0.00160058
-0.00128455
-0.00140598
-0.000765476
-0.00133915
-0.000991428
-0.000306409
-0.000850462
-0.000668854
-2.76164e-05
-5.67768e-05
-0.000174235
-2.90193e-05
5.03407e-05
-0.000160891
-0.000586303
-0.000326017
-0.00126743
-0.00083307
-0.00101434
-0.00158587
-0.0012591
-0.0014209
-0.000794365
-0.00129742
-0.0010553
-0.000301933
-0.000832339
-0.000782372
-8.71529e-05
-0.000100621
-0.000339234
-0.000202564
-7.97765e-05
-0.000340745
-0.000842952
-0.000348657
-0.00127441
-0.000868535
-0.00102473
-0.00157182
-0.00123606
-0.00143107
-0.000828452
-0.00125427
-0.00111642
-0.000313441
-0.000804912
-0.000897915
-0.000172325
-0.000135043
-0.000490879
-0.000396052
-0.000217733
-0.000493235
-0.00107099
-0.000373256
-0.00127914
-0.000906698
-0.00103571
-0.00155783
-0.00121571
-0.00143687
-0.000867006
-0.00121087
-0.00117338
-0.000342392
-0.000770878
-0.00100968
-0.000284941
-0.000167084
-0.000620672
-0.000602549
-0.000371663
-0.00062643
-0.0012622
-0.000399988
-0.00128152
-0.000946834
-0.00104829
-0.00154286
-0.00119813
-0.00143887
-0.000909511
-0.00116833
-0.00122478
-0.000389831
-0.000733947
-0.00111081
-0.00042297
-0.000205893
-0.000724489
-0.000812905
-0.000545128
-0.000750078
-0.00141899
-0.000428982
-0.0012816
-0.000988065
-0.00106332
-0.00152939
-0.00118317
-0.00143731
-0.000955489
-0.0011282
-0.00126889
-0.00045582
-0.000699175
-0.00119556
-0.00058187
-0.000260441
-0.00080284
-0.00101744
-0.000737781
-0.000871372
-0.00154899
-0.000460291
-0.00127963
-0.00102949
-0.00108135
-0.00151738
-0.00117051
-0.00143223
-0.00100469
-0.00109222
-0.00130372
-0.000538995
-0.00067305
-0.00126053
-0.000755396
-0.000338031
-0.000859166
-0.00120639
-0.000948657
-0.000994797
-0.00165659
-0.000493917
-0.00127604
-0.00107018
-0.00110247
-0.00150524
-0.00116006
-0.00142356
-0.00105708
-0.00106239
-0.00132743
-0.000637538
-0.000662864
-0.00130509
-0.000934254
-0.000442827
-0.000899755
-0.00136949
-0.00117503
-0.00112843
-0.00174156
-0.000529809
-0.00127145
-0.00110923
-0.00112635
-0.00148446
-0.00115233
-0.00141009
-0.00111209
-0.00104142
-0.00133914
-0.000747558
-0.000675121
-0.00133261
-0.00110779
-0.000574519
-0.000934454
-0.0014982
-0.00140687
-0.00128478
-0.00180743
-0.000567807
-0.00126661
-0.00114596
-0.00115233
-0.0014823
-0.0011485
-0.00139155
-0.00116849
-0.00103255
-0.00133963
-0.000861879
-0.000712853
-0.00134941
-0.00126789
-0.000728562
-0.000974181
-0.00159054
-0.00162692
-0.00147167
-0.00186988
-0.000607748
-0.00126224
-0.00117993
-0.00117923
-0.00148615
-0.00115036
-0.00136841
-0.00122401
-0.00103843
-0.00133143
-0.000972433
-0.000775025
-0.00136472
-0.00141172
-0.000897533
-0.00102628
-0.00165257
-0.00181949
-0.00168173
-0.00195329
-0.000649459
-0.00125886
-0.0012111
-0.00120604
-0.00149619
-0.00116008
-0.0013419
-0.00127502
-0.00106024
-0.00131863
-0.00107346
-0.00085916
-0.00138618
-0.00153919
-0.00107467
-0.00109341
-0.0016928
-0.0019763
-0.00189516
-0.00207386
-0.000692696
-0.00125702
-0.00123976
-0.00123196
-0.00150949
-0.00117937
-0.00131468
-0.00131722
-0.00109699
-0.0013086
-0.00116224
-0.000958362
-0.00141789
-0.00165224
-0.00125515
-0.00117626
-0.00171791
-0.00209794
-0.00209376
-0.00222533
-0.000737202
-0.00125703
-0.00126663
-0.0012564
-0.00152388
-0.00120918
-0.00129108
-0.00134862
-0.00114532
-0.00130748
-0.00123986
-0.00106483
-0.0014611
-0.0017532
-0.00143525
-0.00127619
-0.00173292
-0.00218734
-0.00226955
-0.00238519
-0.000782804
-0.0012591
-0.00129246
-0.0012793
-0.00153698
-0.00124931
-0.00127602
-0.00136973
-0.00119969
-0.00131734
-0.00130805
-0.00117509
-0.00151569
-0.00184295
-0.00161037
-0.0013953
-0.00174516
-0.00224346
-0.00242275
-0.00253773
-0.000829355
-0.00126345
-0.00131772
-0.00130101
-0.00154763
-0.00129835
-0.00127389
-0.00138194
-0.00125372
-0.00133859
-0.00137126
-0.00128665
-0.00158209
-0.00192328
-0.00177353
-0.00153257
-0.00176645
-0.00226744
-0.00254984
-0.00268245
-0.000876718
-0.0012701
-0.00134288
-0.00132258
-0.00155528
-0.00135266
-0.00128734
-0.00139096
-0.00130265
-0.00136892
-0.00143389
-0.00139707
-0.00165923
-0.00199822
-0.00192054
-0.00167916
-0.00180816
-0.00226949
-0.00264088
-0.00282255
-0.000924747
-0.00127877
-0.00136823
-0.00134558
-0.00156
-0.00140761
-0.00131701
-0.00140423
-0.00134667
-0.00140163
-0.00149546
-0.00150835
-0.00174527
-0.0020711
-0.0020505
-0.00182425
-0.00187264
-0.00226708
-0.00269295
-0.00294989
-0.000973346
-0.00128951
-0.00139375
-0.00137146
-0.00156221
-0.00145927
-0.00136208
-0.00142767
-0.00138701
-0.00143296
-0.00155319
-0.0016202
-0.00184244
-0.00214431
-0.00216377
-0.00196058
-0.00195056
-0.00227795
-0.00271679
-0.00304825
-0.00102251
-0.00130227
-0.00141928
-0.00140107
-0.00156352
-0.00150496
-0.00141902
-0.00146541
-0.00142783
-0.00146184
-0.00160322
-0.0017276
-0.00195332
-0.00222401
-0.002262
-0.00208267
-0.00203061
-0.00230478
-0.00273455
-0.00311298
-0.00107225
-0.00131715
-0.00144442
-0.0014349
-0.00156664
-0.0015432
-0.00148173
-0.00151834
-0.00147686
-0.00148862
-0.00164197
-0.00182653
-0.00207256
-0.00231878
-0.00235259
-0.00218628
-0.00210519
-0.00233579
-0.00276384
-0.00315787
-0.00112254
-0.00133433
-0.00146852
-0.00147284
-0.00157482
-0.00157399
-0.00154394
-0.00158542
-0.00153993
-0.00151804
-0.00166704
-0.00191064
-0.00219501
-0.00243081
-0.00244694
-0.00227581
-0.00216728
-0.0023593
-0.00279898
-0.00320877
-0.00117329
-0.00135412
-0.00149113
-0.00151425
-0.00159081
-0.00159859
-0.00160073
-0.00166291
-0.00161942
-0.00155814
-0.0016815
-0.00197048
-0.00231378
-0.00255881
-0.00255512
-0.00236096
-0.00221755
-0.00236508
-0.00282102
-0.0032773
-0.00122437
-0.00137695
-0.00151224
-0.00155783
-0.00161618
-0.00162013
-0.00164904
-0.00174393
-0.00171539
-0.0016157
-0.0016912
-0.00200296
-0.0024145
-0.00269803
-0.00268428
-0.00245251
-0.00226503
-0.00235467
-0.00280862
-0.00334249
-0.00127552
-0.00140326
-0.00153221
-0.00160161
-0.00165159
-0.00164329
-0.00168786
-0.00182081
-0.00182534
-0.00169636
-0.00170539
-0.00201184
-0.00248455
-0.00283598
-0.00283908
-0.00256253
-0.00231626
-0.00234147
-0.00275594
-0.0033712
-0.00132645
-0.00143336
-0.00155177
-0.00164339
-0.00169636
-0.00167315
-0.00171829
-0.00188743
-0.00194259
-0.00180247
-0.00173526
-0.00200168
-0.00251967
-0.00295401
-0.00301066
-0.00270599
-0.00238029
-0.00233388
-0.00268139
-0.00333537
-0.00137684
-0.00146735
-0.00157229
-0.00168147
-0.00174871
-0.00171341
-0.0017435
-0.00194018
-0.00205769
-0.00193058
-0.00179195
-0.00198299
-0.00251867
-0.00303959
-0.00318288
-0.00288718
-0.00247421
-0.00233733
-0.00260579
-0.00323926
-0.0014264
-0.00150508
-0.00159536
-0.00171519
-0.0018054
-0.00176602
-0.00176955
-0.00197804
-0.00216143
-0.00207426
-0.00188205
-0.00197358
-0.00248517
-0.00308333
-0.00333561
-0.00309424
-0.00261677
-0.002362
-0.0025415
-0.00311399
-0.00147496
-0.00154614
-0.00162267
-0.00174499
-0.00186188
-0.0018306
-0.00180341
-0.00200273
-0.0022465
-0.00222357
-0.00200475
-0.00198975
-0.00243106
-0.00307948
-0.00345204
-0.00330872
-0.00281236
-0.00242769
-0.00249338
-0.00298545
-0.00152253
-0.00158987
-0.00165538
-0.00177197
-0.00191419
-0.00190494
-0.00185047
-0.0020191
-0.00230843
-0.00236589
-0.002154
-0.0020419
-0.00237728
-0.00303307
-0.00351798
-0.00350488
-0.00304793
-0.00255552
-0.0024733
-0.00286686
-0.00156928
-0.00163535
-0.00169388
-0.00179838
-0.00195996
-0.00198493
-0.00191342
-0.00203568
-0.00234764
-0.00248945
-0.00232026
-0.00213525
-0.00234295
-0.00295601
-0.00352834
-0.00365832
-0.00329867
-0.00275117
-0.00250427
-0.00276633
-0.00161558
-0.00168161
-0.00173771
-0.00182705
-0.00199873
-0.00206443
-0.00199168
-0.00206147
-0.0023678
-0.00258608
-0.00248781
-0.00226682
-0.00234353
-0.00286768
-0.00348975
-0.00375397
-0.00352816
-0.00299845
-0.00260914
-0.00270313
-0.00166184
-0.00172786
-0.00178589
-0.00186046
-0.00203175
-0.0021375
-0.00208168
-0.00210323
-0.00237634
-0.00265295
-0.00264029
-0.00242607
-0.00239117
-0.00278942
-0.00341121
-0.00379031
-0.00370831
-0.00326286
-0.00279116
-0.00270542
-0.00170847
-0.00177364
-0.001837
-0.00190003
-0.00206126
-0.00220052
-0.00217771
-0.00216411
-0.00238441
-0.00269247
-0.00276715
-0.00259578
-0.00248584
-0.0027437
-0.00330944
-0.00377238
-0.00382801
-0.00350167
-0.00302779
-0.00279321
-0.0017558
-0.00181886
-0.0018892
-0.00194581
-0.00209062
-0.00225291
-0.002272
-0.00224226
-0.00240277
-0.00271011
-0.0028626
-0.00275718
-0.00261532
-0.00274672
-0.00320941
-0.00370689
-0.00388692
-0.00369026
-0.00327894
-0.00295864
-0.00180395
-0.00186371
-0.00194081
-0.00199674
-0.00212317
-0.0022962
-0.00235774
-0.00233231
-0.00243834
-0.00271656
-0.00292604
-0.00289767
-0.00276276
-0.0027989
-0.00313813
-0.00361253
-0.00388936
-0.00382076
-0.00350623
-0.00317306
-0.00185278
-0.00190845
-0.00199073
-0.0020511
-0.002161
-0.00233303
-0.00243137
-0.00242698
-0.00249252
-0.00272481
-0.00296239
-0.00300929
-0.00290947
-0.002888
-0.00311206
-0.00351712
-0.00384472
-0.0038933
-0.00368877
-0.00339694
-0.00190194
-0.00195334
-0.00203857
-0.00210671
-0.00220441
-0.00236707
-0.00249249
-0.00251824
-0.00256137
-0.00274409
-0.00298076
-0.00308919
-0.0030417
-0.00299874
-0.0031312
-0.00344673
-0.00377523
-0.00391413
-0.0038186
-0.00359819
-0.00195095
-0.00199846
-0.0020844
-0.00216147
-0.00225231
-0.00240172
-0.00254309
-0.00260027
-0.00263861
-0.00277805
-0.00299375
-0.00314167
-0.00315044
-0.00311445
-0.00318483
-0.00341432
-0.00370677
-0.00389633
-0.00389667
-0.00375882
-0.00199922
-0.00204362
-0.00212852
-0.0022138
-0.00230281
-0.00243889
-0.00258599
-0.00267061
-0.00271723
-0.00282522
-0.00301081
-0.00317473
-0.00323232
-0.00322197
-0.00325996
-0.00341903
-0.00365872
-0.00386141
-0.00393192
-0.00387292
-0.00204613
-0.00208839
-0.00217118
-0.00226284
-0.00235379
-0.00247888
-0.00262429
-0.00272944
-0.00279127
-0.00288105
-0.00303614
-0.0031984
-0.00329069
-0.00331293
-0.00334254
-0.00345192
-0.00363861
-0.00382831
-0.0039386
-0.00394456
-0.00209109
-0.00213213
-0.00221242
-0.00230826
-0.00240323
-0.00252077
-0.00266061
-0.00277857
-0.00285698
-0.00294025
-0.00307007
-0.00322068
-0.0033321
-0.00338435
-0.0034212
-0.00350196
-0.00364443
-0.00380874
-0.00393352
-0.00398434
-0.00213349
-0.002174
-0.00225198
-0.00235003
-0.00244956
-0.00256298
-0.00269628
-0.00282032
-0.00291296
-0.00299766
-0.00311018
-0.00324567
-0.00336374
-0.00343848
-0.00348916
-0.00355784
-0.0036686
-0.00380584
-0.00392871
-0.00400476
-0.00217264
-0.00221311
-0.00228928
-0.00238811
-0.0024917
-0.00260371
-0.00273131
-0.00285697
-0.00295998
-0.00304953
-0.00315235
-0.00327406
-0.00339118
-0.0034801
-0.00354464
-0.00361136
-0.0037026
-0.0038168
-0.00393001
-0.00401671
-0.00220782
-0.00224854
-0.00232351
-0.00242226
-0.00252892
-0.00264121
-0.00276471
-0.00288981
-0.00299952
-0.00309454
-0.00319294
-0.00330423
-0.00341695
-0.00351308
-0.00358885
-0.00365861
-0.0037397
-0.00383676
-0.00393841
-0.00402689
-0.00223819
-0.00227926
-0.0023536
-0.00245197
-0.00256078
-0.00267411
-0.00279477
-0.00291825
-0.00303209
-0.00313249
-0.00322978
-0.00333369
-0.00344092
-0.00353964
-0.00362338
-0.00369799
-0.0037751
-0.00386113
-0.00395229
-0.00403814
-0.0022631
-0.00230442
-0.00237821
-0.00247579
-0.00258584
-0.00270036
-0.00281916
-0.00294045
-0.00305612
-0.00316077
-0.00325892
-0.00335851
-0.00346079
-0.00355944
-0.00364826
-0.0037277
-0.00380384
-0.00388244
-0.00396412
-0.00404446
-0.00228282
-0.00232649
-0.00240201
-0.00250033
-0.00261176
-0.00272802
-0.0028468
-0.0029668
-0.00308277
-0.00318988
-0.00328977
-0.00338809
-0.00348736
-0.00358458
-0.00367513
-0.00375778
-0.00383549
-0.00391227
-0.00398968
-0.00406601
0.0135485
0.00735107
-0.000947868
-0.007177
-0.00924917
-0.008769
-0.00791529
-0.00738156
-0.00711376
-0.00704655
-0.00716037
-0.00734189
-0.00743796
-0.00742979
-0.0073939
-0.00736185
-0.00736355
-0.00739945
-0.0074268
-0.00747895
-0.00755672
-0.00757319
-0.00756837
-0.0076361
-0.00771412
-0.0077411
-0.00778771
-0.00788982
-0.00798392
-0.00803242
-0.00807747
-0.0081718
-0.00828395
-0.00834128
-0.00838476
-0.00849454
-0.00860732
-0.00865321
-0.00869933
-0.00878026
-0.00883819
-0.00886805
-0.0089072
-0.00895062
-0.00898375
-0.0090147
-0.00904972
-0.00908576
-0.00911878
-0.00915116
-0.00918709
-0.00922442
-0.00925875
-0.00929557
-0.00933804
-0.00938213
-0.00942423
-0.00946885
-0.00951701
-0.00956748
-0.00961864
-0.00967205
-0.00972779
-0.0097853
-0.00984508
-0.00990614
-0.00997043
-0.0100354
-0.0101042
-0.0101732
-0.0102462
-0.0103196
-0.0103964
-0.0104747
-0.0105548
-0.0106385
-0.0107219
-0.0108109
-0.010898
-0.0109911
-0.0110831
-0.0111786
-0.0112766
-0.0113737
-0.0114774
-0.0115775
-0.0116841
-0.0117908
-0.0118967
-0.0120121
-0.0121175
-0.0122369
-0.0123498
-0.0124603
-0.0125891
-0.0126896
-0.0128068
-0.0129303
-0.0129919
-0.0130648
0.0127279
0.00719966
-0.000860059
-0.00703457
-0.00916201
-0.00872665
-0.00788917
-0.00736356
-0.00710036
-0.00703564
-0.00715128
-0.00733453
-0.00743203
-0.00742483
-0.00738965
-0.00735808
-0.0073601
-0.00739635
-0.00742394
-0.00747626
-0.00755434
-0.00757101
-0.00756621
-0.0076341
-0.00771237
-0.00773943
-0.00778608
-0.00788835
-0.00798263
-0.00803123
-0.00807631
-0.00817071
-0.00828302
-0.00834046
-0.00838393
-0.00849378
-0.00860672
-0.00865268
-0.00869881
-0.00877982
-0.00883784
-0.00886773
-0.00890691
-0.00895038
-0.00898354
-0.00901452
-0.00904956
-0.00908563
-0.00911868
-0.00915107
-0.00918701
-0.00922436
-0.00925869
-0.00929553
-0.009338
-0.0093821
-0.0094242
-0.00946884
-0.00951699
-0.00956747
-0.00961864
-0.00967204
-0.00972779
-0.0097853
-0.00984507
-0.00990614
-0.00997043
-0.0100354
-0.0101042
-0.0101732
-0.0102462
-0.0103196
-0.0103964
-0.0104747
-0.0105548
-0.0106385
-0.0107219
-0.0108109
-0.010898
-0.0109911
-0.0110831
-0.0111786
-0.0112766
-0.0113737
-0.0114774
-0.0115775
-0.0116841
-0.0117908
-0.0118967
-0.0120121
-0.0121175
-0.0122369
-0.0123498
-0.0124603
-0.0125891
-0.0126896
-0.0128068
-0.0129303
-0.0129919
-0.0130647
0.01198
0.00706757
-0.000669743
-0.00676427
-0.00901244
-0.00867142
-0.00786194
-0.00734309
-0.0070843
-0.00702311
-0.00714095
-0.00732563
-0.00742441
-0.00741854
-0.00738466
-0.00735402
-0.00735664
-0.00739338
-0.00742124
-0.00747379
-0.00755219
-0.00756899
-0.00756418
-0.00763228
-0.00771079
-0.00773788
-0.00778456
-0.007887
-0.00798144
-0.00803011
-0.00807522
-0.0081697
-0.00828217
-0.00833968
-0.00838313
-0.00849308
-0.00860617
-0.00865215
-0.00869829
-0.00877941
-0.0088375
-0.00886741
-0.00890663
-0.00895015
-0.00898333
-0.00901434
-0.00904941
-0.0090855
-0.00911857
-0.00915098
-0.00918693
-0.00922429
-0.00925864
-0.00929548
-0.00933796
-0.00938207
-0.00942418
-0.00946881
-0.00951698
-0.00956746
-0.00961863
-0.00967203
-0.00972778
-0.00978529
-0.00984507
-0.00990613
-0.00997043
-0.0100354
-0.0101042
-0.0101732
-0.0102462
-0.0103196
-0.0103964
-0.0104747
-0.0105548
-0.0106385
-0.0107219
-0.0108109
-0.010898
-0.0109911
-0.0110831
-0.0111786
-0.0112766
-0.0113737
-0.0114774
-0.0115775
-0.0116841
-0.0117908
-0.0118967
-0.0120121
-0.0121175
-0.0122369
-0.0123498
-0.0124603
-0.0125891
-0.0126896
-0.0128068
-0.0129303
-0.0129919
-0.0130647
0.0112802
0.00693533
-0.000433708
-0.00642697
-0.00881009
-0.00859472
-0.007823
-0.00731232
-0.00706036
-0.00700579
-0.00712729
-0.00731317
-0.00741286
-0.00740871
-0.00737694
-0.00734799
-0.00735175
-0.00738935
-0.00741781
-0.00747079
-0.00754962
-0.00756662
-0.00756185
-0.00763015
-0.0077089
-0.0077361
-0.00778284
-0.00788539
-0.00797998
-0.00802877
-0.00807394
-0.00816848
-0.00828107
-0.00833867
-0.00838214
-0.0084922
-0.00860544
-0.00865143
-0.00869762
-0.00877886
-0.00883703
-0.00886696
-0.00890625
-0.00894983
-0.00898305
-0.00901408
-0.00904919
-0.00908532
-0.00911842
-0.00915084
-0.00918682
-0.0092242
-0.00925856
-0.00929541
-0.00933791
-0.00938203
-0.00942414
-0.00946878
-0.00951695
-0.00956744
-0.00961861
-0.00967202
-0.00972778
-0.00978529
-0.00984507
-0.00990613
-0.00997043
-0.0100354
-0.0101042
-0.0101732
-0.0102462
-0.0103196
-0.0103964
-0.0104747
-0.0105548
-0.0106385
-0.0107219
-0.0108109
-0.010898
-0.0109911
-0.0110831
-0.0111786
-0.0112766
-0.0113737
-0.0114774
-0.0115775
-0.0116841
-0.0117908
-0.0118967
-0.0120121
-0.0121175
-0.0122369
-0.0123498
-0.0124603
-0.0125891
-0.0126896
-0.0128068
-0.0129303
-0.0129919
-0.0130647
0.0105878
0.0067749
-0.00019549
-0.00607366
-0.00858886
-0.00850874
-0.00777839
-0.00727398
-0.00702881
-0.00698286
-0.00710924
-0.00729601
-0.00739618
-0.00739421
-0.00736558
-0.00733923
-0.0073446
-0.00738337
-0.00741283
-0.00746655
-0.00754599
-0.00756351
-0.007559
-0.00762738
-0.00770636
-0.00773388
-0.00778073
-0.00788323
-0.00797792
-0.00802701
-0.00807233
-0.00816681
-0.00827943
-0.0083372
-0.0083808
-0.00849094
-0.00860425
-0.00865031
-0.0086966
-0.00877798
-0.00883623
-0.00886625
-0.00890565
-0.00894931
-0.00898257
-0.00901366
-0.00904884
-0.00908502
-0.00911816
-0.00915062
-0.00918662
-0.00922403
-0.00925842
-0.0092953
-0.00933781
-0.00938195
-0.00942407
-0.00946873
-0.00951691
-0.00956741
-0.00961858
-0.009672
-0.00972776
-0.00978527
-0.00984506
-0.00990612
-0.00997042
-0.0100354
-0.0101042
-0.0101732
-0.0102462
-0.0103196
-0.0103964
-0.0104747
-0.0105548
-0.0106385
-0.0107219
-0.0108109
-0.010898
-0.0109911
-0.0110831
-0.0111786
-0.0112766
-0.0113737
-0.0114774
-0.0115775
-0.0116841
-0.0117908
-0.0118967
-0.0120121
-0.0121175
-0.0122369
-0.0123498
-0.0124603
-0.0125891
-0.0126896
-0.0128068
-0.0129304
-0.012992
-0.0130647
0.00989817
0.00657943
3.23971e-05
-0.00571715
-0.00835792
-0.0084188
-0.00773339
-0.00723305
-0.00699298
-0.00695602
-0.00708773
-0.007275
-0.00737525
-0.00737578
-0.00735109
-0.00732802
-0.00733524
-0.00737525
-0.00740596
-0.00746059
-0.00754081
-0.00755937
-0.00755549
-0.00762382
-0.00770298
-0.00773113
-0.00777818
-0.00788031
-0.00797502
-0.00802472
-0.00807035
-0.00816453
-0.00827698
-0.00833507
-0.00837898
-0.00848909
-0.00860235
-0.00864856
-0.00869506
-0.00877657
-0.00883492
-0.0088651
-0.00890468
-0.00894844
-0.00898178
-0.00901297
-0.00904824
-0.00908452
-0.00911774
-0.00915025
-0.00918629
-0.00922374
-0.00925818
-0.0092951
-0.00933764
-0.0093818
-0.00942395
-0.00946863
-0.00951682
-0.00956734
-0.00961853
-0.00967195
-0.00972772
-0.00978525
-0.00984504
-0.00990611
-0.00997041
-0.0100354
-0.0101042
-0.0101732
-0.0102462
-0.0103196
-0.0103964
-0.0104747
-0.0105548
-0.0106385
-0.0107219
-0.0108109
-0.010898
-0.0109911
-0.0110831
-0.0111786
-0.0112766
-0.0113737
-0.0114774
-0.0115775
-0.0116841
-0.0117908
-0.0118967
-0.0120121
-0.0121175
-0.0122369
-0.0123498
-0.0124603
-0.0125891
-0.0126896
-0.0128068
-0.0129304
-0.0129921
-0.0130647
0.0092147
0.0063489
0.000246684
-0.00535826
-0.00811626
-0.00832388
-0.00768866
-0.00719135
-0.00695442
-0.00692627
-0.0070637
-0.00725149
-0.00735171
-0.00735495
-0.0073347
-0.00731537
-0.00732443
-0.00736548
-0.00739741
-0.0074529
-0.00753392
-0.007554
-0.00755117
-0.00761937
-0.00769872
-0.00772786
-0.00777516
-0.00787655
-0.00797116
-0.00802182
-0.00806801
-0.00816161
-0.0082736
-0.00833218
-0.00837659
-0.00848651
-0.00859955
-0.00864605
-0.00869287
-0.00877445
-0.00883291
-0.00886338
-0.00890321
-0.0089471
-0.00898056
-0.00901189
-0.00904731
-0.00908372
-0.00911706
-0.00914966
-0.00918576
-0.00922327
-0.00925779
-0.00929477
-0.00933736
-0.00938155
-0.00942374
-0.00946845
-0.00951668
-0.00956721
-0.00961842
-0.00967187
-0.00972766
-0.00978519
-0.009845
-0.00990607
-0.00997039
-0.0100354
-0.0101042
-0.0101732
-0.0102462
-0.0103196
-0.0103964
-0.0104747
-0.0105548
-0.0106385
-0.0107219
-0.0108109
-0.010898
-0.0109911
-0.0110831
-0.0111786
-0.0112766
-0.0113737
-0.0114774
-0.0115775
-0.0116841
-0.0117908
-0.0118967
-0.0120121
-0.0121175
-0.0122369
-0.0123498
-0.0124603
-0.0125891
-0.0126896
-0.0128068
-0.0129304
-0.0129922
-0.0130647
0.00854289
0.00608502
0.000444982
-0.00499632
-0.00786137
-0.00822177
-0.00764384
-0.00714956
-0.00691368
-0.00689388
-0.00703759
-0.0072263
-0.00732658
-0.00733266
-0.00731716
-0.00730185
-0.00731279
-0.00735469
-0.0073877
-0.00744388
-0.00752562
-0.00754745
-0.00754599
-0.00761408
-0.0076937
-0.00772413
-0.00777172
-0.00787202
-0.00796635
-0.00801831
-0.00806531
-0.00815811
-0.00826936
-0.00832858
-0.00837366
-0.00848315
-0.00859579
-0.0086427
-0.00868995
-0.00877153
-0.00883011
-0.00886099
-0.00890115
-0.00894521
-0.00897882
-0.00901035
-0.00904595
-0.00908254
-0.00911605
-0.00914879
-0.00918496
-0.00922256
-0.00925719
-0.00929428
-0.00933693
-0.00938116
-0.00942341
-0.00946818
-0.00951645
-0.00956702
-0.00961826
-0.00967173
-0.00972755
-0.0097851
-0.00984492
-0.00990602
-0.00997034
-0.0100353
-0.0101041
-0.0101732
-0.0102462
-0.0103196
-0.0103964
-0.0104747
-0.0105548
-0.0106385
-0.0107219
-0.0108109
-0.010898
-0.0109911
-0.0110831
-0.0111786
-0.0112766
-0.0113737
-0.0114774
-0.0115775
-0.0116841
-0.0117908
-0.0118967
-0.0120121
-0.0121175
-0.0122369
-0.0123498
-0.0124603
-0.0125892
-0.0126896
-0.0128068
-0.0129305
-0.0129924
-0.0130647
0.007889
0.00579063
0.000624146
-0.00463225
-0.00759211
-0.00811098
-0.00759878
-0.00710846
-0.00687135
-0.00685904
-0.00700958
-0.00719976
-0.00730028
-0.00730929
-0.00729871
-0.00728762
-0.0073005
-0.00734322
-0.00737724
-0.00743402
-0.00751633
-0.00753997
-0.00754004
-0.00760809
-0.00768808
-0.00772003
-0.00776793
-0.00786686
-0.00796077
-0.00801421
-0.00806225
-0.00815412
-0.00826443
-0.00832442
-0.00837031
-0.00847914
-0.00859114
-0.00863859
-0.00868636
-0.00876786
-0.00882654
-0.00885793
-0.0088985
-0.00894274
-0.00897654
-0.00900831
-0.00904414
-0.00908095
-0.0091147