/*--------------------------------*- C++ -*----------------------------------*\
| =========                 |                                                 |
| \\      /  F ield         | OpenFOAM: The Open Source CFD Toolbox           |
|  \\    /   O peration     | Version:  2106                                  |
|   \\  /    A nd           | Website:  www.openfoam.com                      |
|    \\/     M anipulation  |                                                 |
\*---------------------------------------------------------------------------*/
FoamFile
{
    version     2.0;
    format      ascii;
    arch        "LSB;label=32;scalar=64";
    class       surfaceScalarField;
    location    "0.95";
    object      phi;
}
// * * * * * * * * * * * * * * * * * * * * * * * * * * * * * * * * * * * * * //

dimensions      [0 3 -1 0 0 0 0];

oriented        oriented;

internalField   nonuniform List<scalar> 
19000
(
1.17298e-06
-6.28603e-07
1.19848e-06
9.46771e-07
1.18403e-06
-6.68089e-07
1.15841e-06
5.087e-07
1.18073e-06
-4.46383e-07
1.207e-06
-2.20758e-07
1.22839e-06
-1.41819e-07
1.20222e-06
3.10003e-08
1.20594e-06
3.53902e-07
1.17853e-06
3.74153e-07
1.17849e-06
1.16021e-08
1.18127e-06
1.85439e-07
1.19099e-06
-7.91526e-08
1.18189e-06
-1.96896e-07
1.18673e-06
-2.15687e-07
1.18593e-06
-1.21733e-07
1.19636e-06
-1.54191e-07
1.1882e-06
-1.09562e-07
1.1917e-06
-1.30637e-07
-1.0522e-07
1.15644e-06
1.23196e-06
-6.36307e-07
1.26142e-06
9.1732e-07
1.24747e-06
-6.54143e-07
1.22393e-06
5.32239e-07
1.24447e-06
-4.66917e-07
1.26891e-06
-2.45199e-07
1.28971e-06
-1.62622e-07
1.26616e-06
5.45444e-08
1.26261e-06
3.57457e-07
1.24526e-06
3.91498e-07
1.23679e-06
2.00716e-08
1.24865e-06
1.73585e-07
1.24762e-06
-7.81254e-08
1.24772e-06
-1.96994e-07
1.23993e-06
-2.07897e-07
1.25338e-06
-1.35184e-07
1.24606e-06
-1.46867e-07
1.25934e-06
-1.22843e-07
1.23792e-06
-1.09217e-07
-1.06799e-07
1.2395e-06
1.29246e-06
-6.45979e-07
1.32635e-06
8.83422e-07
1.31123e-06
-6.39018e-07
1.2954e-06
5.48071e-07
1.30784e-06
-4.79365e-07
1.33414e-06
-2.71498e-07
1.3515e-06
-1.79978e-07
1.33669e-06
6.93507e-08
1.32414e-06
3.70015e-07
1.31683e-06
3.98799e-07
1.29958e-06
3.73237e-08
1.31378e-06
1.59389e-07
1.30542e-06
-6.97643e-08
1.30813e-06
-1.99709e-07
1.29718e-06
-1.96942e-07
1.30918e-06
-1.47188e-07
1.30404e-06
-1.41721e-07
1.31168e-06
-1.30487e-07
1.29949e-06
-9.70313e-08
-9.59865e-08
1.28868e-06
1.35441e-06
-6.56288e-07
1.38911e-06
8.48728e-07
1.37311e-06
-6.2302e-07
1.36566e-06
5.55524e-07
1.36809e-06
-4.81801e-07
1.39608e-06
-2.99492e-07
1.41055e-06
-1.94442e-07
1.40607e-06
7.38304e-08
1.39077e-06
3.85317e-07
1.38585e-06
4.0372e-07
1.36617e-06
5.69994e-08
1.37464e-06
1.50923e-07
1.36479e-06
-5.99213e-08
1.36401e-06
-1.98921e-07
1.35652e-06
-1.89455e-07
1.36343e-06
-1.54099e-07
1.36215e-06
-1.40438e-07
1.36586e-06
-1.342e-07
1.35828e-06
-8.94494e-08
-8.39892e-08
1.34628e-06
1.41767e-06
-6.65607e-07
1.44914e-06
8.17257e-07
1.43319e-06
-6.07067e-07
1.43237e-06
5.56345e-07
1.42655e-06
-4.75982e-07
1.45334e-06
-3.26283e-07
1.46636e-06
-2.07464e-07
1.47013e-06
7.00664e-08
1.45866e-06
3.96789e-07
1.4517e-06
4.10673e-07
1.43344e-06
7.52599e-08
1.4356e-06
1.48763e-07
1.42556e-06
-4.98754e-08
1.42202e-06
-1.95383e-07
1.41689e-06
-1.84325e-07
1.42156e-06
-1.58768e-07
1.42049e-06
-1.39373e-07
1.42299e-06
-1.36693e-07
1.41695e-06
-8.3416e-08
-7.26847e-08
1.40565e-06
1.48267e-06
-6.72603e-07
1.50813e-06
7.918e-07
1.49338e-06
-5.92321e-07
1.49688e-06
5.52844e-07
1.48676e-06
-4.65854e-07
1.50899e-06
-3.48518e-07
1.52093e-06
-2.194e-07
1.52958e-06
6.14136e-08
1.52425e-06
4.02119e-07
1.51592e-06
4.18999e-07
1.49976e-06
9.14269e-08
1.49887e-06
1.49649e-07
1.48885e-06
-3.98519e-08
1.48453e-06
-1.91069e-07
1.48019e-06
-1.79982e-07
1.48381e-06
-1.62386e-07
1.48211e-06
-1.37679e-07
1.48296e-06
-1.3754e-07
1.47822e-06
-7.86739e-08
-6.12547e-08
1.46679e-06
1.55018e-06
-6.76562e-07
1.5689e-06
7.73073e-07
1.55613e-06
-5.79545e-07
1.5624e-06
5.46573e-07
1.55164e-06
-4.55097e-07
1.56738e-06
-3.64261e-07
1.5771e-06
-2.29115e-07
1.58744e-06
5.10771e-08
1.58712e-06
4.02435e-07
1.58012e-06
4.26004e-07
1.56611e-06
1.05428e-07
1.5652e-06
1.50566e-07
1.5561e-06
-3.07524e-08
1.552e-06
-1.86973e-07
1.54781e-06
-1.75788e-07
1.55039e-06
-1.64965e-07
1.5483e-06
-1.35595e-07
1.54704e-06
-1.36272e-07
1.54319e-06
-7.48279e-08
-4.93971e-08
1.53133e-06
1.62097e-06
-6.774e-07
1.63408e-06
7.59955e-07
1.62332e-06
-5.68778e-07
1.63171e-06
5.38178e-07
1.62235e-06
-4.4573e-07
1.63147e-06
-3.73386e-07
1.63742e-06
-2.35063e-07
1.64695e-06
4.15448e-08
1.64961e-06
3.99778e-07
1.64606e-06
4.29552e-07
1.63464e-06
1.16847e-07
1.63533e-06
1.49879e-07
1.62797e-06
-2.33987e-08
1.6244e-06
-1.83395e-07
1.62008e-06
-1.71472e-07
1.62147e-06
-1.66357e-07
1.61928e-06
-1.33405e-07
1.61593e-06
-1.32918e-07
1.61252e-06
-7.14214e-08
-3.71565e-08
1.60028e-06
1.69564e-06
-6.75467e-07
1.70517e-06
7.50428e-07
1.69589e-06
-5.59499e-07
1.70617e-06
5.27895e-07
1.69857e-06
-4.38125e-07
1.70218e-06
-3.76996e-07
1.70353e-06
-2.36416e-07
1.71082e-06
3.4259e-08
1.7149e-06
3.95695e-07
1.71563e-06
4.28826e-07
1.70714e-06
1.25329e-07
1.70994e-06
1.47078e-07
1.70452e-06
-1.7971e-08
1.7014e-06
-1.80279e-07
1.6969e-06
-1.66974e-07
1.69696e-06
-1.66416e-07
1.69486e-06
-1.31308e-07
1.68966e-06
-1.27717e-07
1.68637e-06
-6.81263e-08
-2.48037e-08
1.67401e-06
1.77456e-06
-6.713e-07
1.78249e-06
7.42496e-07
1.77397e-06
-5.50984e-07
1.7859e-06
5.15967e-07
1.77947e-06
-4.31698e-07
1.77913e-06
-3.76649e-07
1.77611e-06
-2.334e-07
1.78084e-06
2.95275e-08
1.78554e-06
3.90993e-07
1.79032e-06
4.24049e-07
1.78467e-06
1.30979e-07
1.78939e-06
1.42364e-07
1.78556e-06
-1.41496e-08
1.78263e-06
-1.77347e-07
1.77805e-06
-1.62396e-07
1.77667e-06
-1.65031e-07
1.77477e-06
-1.29404e-07
1.76803e-06
-1.20978e-07
1.76458e-06
-6.46836e-08
-1.27758e-08
1.75256e-06
1.85787e-06
-6.65426e-07
1.86568e-06
7.34689e-07
1.8573e-06
-5.426e-07
1.87052e-06
5.02745e-07
1.86438e-06
-4.2556e-07
1.86155e-06
-3.73818e-07
1.85512e-06
-2.2697e-07
1.85786e-06
2.67913e-08
1.8629e-06
3.85951e-07
1.87097e-06
4.15977e-07
1.86762e-06
1.34332e-07
1.87369e-06
1.36293e-07
1.87099e-06
-1.14547e-08
1.86788e-06
-1.7423e-07
1.86337e-06
-1.57893e-07
1.86052e-06
-1.62175e-07
1.8588e-06
-1.27692e-07
1.85089e-06
-1.13066e-07
1.84703e-06
-6.08165e-08
-1.59128e-09
1.83584e-06
1.94566e-06
-6.58251e-07
1.95423e-06
7.2612e-07
1.94555e-06
-5.3392e-07
1.95972e-06
4.88581e-07
1.95306e-06
-4.18906e-07
1.94888e-06
-3.69631e-07
1.94019e-06
-2.18281e-07
1.94188e-06
2.50963e-08
1.94727e-06
3.80567e-07
1.95775e-06
4.05494e-07
1.95598e-06
1.36099e-07
1.96276e-06
1.29518e-07
1.96078e-06
-9.48329e-09
1.95713e-06
-1.7057e-07
1.95283e-06
-1.53598e-07
1.94857e-06
-1.57916e-07
1.94694e-06
-1.26063e-07
1.93827e-06
-1.04395e-07
1.93372e-06
-5.62623e-08
8.32163e-09
1.92381e-06
2.03798e-06
-6.50044e-07
2.04776e-06
7.16343e-07
2.03854e-06
-5.24702e-07
2.05341e-06
4.73716e-07
2.04566e-06
-4.1116e-07
2.04087e-06
-3.64842e-07
2.03088e-06
-2.08294e-07
2.03246e-06
2.35227e-08
2.03827e-06
3.74752e-07
2.05039e-06
3.93374e-07
2.04958e-06
1.36906e-07
2.05648e-06
1.22624e-07
2.055e-06
-8.00139e-09
2.05052e-06
-1.66092e-07
2.04651e-06
-1.4959e-07
2.04102e-06
-1.52424e-07
2.03927e-06
-1.24317e-07
2.03029e-06
-9.54158e-08
2.02485e-06
-5.08199e-08
1.67041e-08
2.01647e-06
2.13492e-06
-6.40962e-07
2.14608e-06
7.05186e-07
2.13619e-06
-5.14816e-07
2.15167e-06
4.5824e-07
2.14251e-06
-4.02006e-07
2.13757e-06
-3.59903e-07
2.1269e-06
-1.97618e-07
2.12899e-06
2.14288e-08
2.13532e-06
3.68427e-07
2.14848e-06
3.80209e-07
2.14823e-06
1.37157e-07
2.15481e-06
1.16048e-07
2.15374e-06
-6.93851e-09
2.14828e-06
-1.60632e-07
2.14458e-06
-1.45884e-07
2.1381e-06
-1.45949e-07
2.13596e-06
-1.22172e-07
2.12711e-06
-8.65709e-08
2.12073e-06
-4.44323e-08
2.35463e-08
2.11388e-06
2.23662e-06
-6.31095e-07
2.24919e-06
6.92623e-07
2.23854e-06
-5.04173e-07
2.25466e-06
4.42119e-07
2.24399e-06
-3.91337e-07
2.23917e-06
-3.55077e-07
2.22809e-06
-1.86538e-07
2.23101e-06
1.85063e-08
2.23788e-06
3.61562e-07
2.25166e-06
3.66425e-07
2.2518e-06
1.37014e-07
2.25777e-06
1.10081e-07
2.25716e-06
-6.33138e-09
2.25068e-06
-1.54151e-07
2.24722e-06
-1.42421e-07
2.24009e-06
-1.38818e-07
2.23722e-06
-1.19303e-07
2.22887e-06
-7.82274e-08
2.22166e-06
-3.72174e-08
2.90655e-08
2.21614e-06
2.34328e-06
-6.20496e-07
2.3572e-06
6.78694e-07
2.34572e-06
-4.9269e-07
2.36258e-06
4.25256e-07
2.35044e-06
-3.79194e-07
2.34588e-06
-3.50518e-07
2.33447e-06
-1.7513e-07
2.33826e-06
1.47185e-08
2.34566e-06
3.54165e-07
2.35975e-06
3.52336e-07
2.36031e-06
1.36457e-07
2.36549e-06
1.04901e-07
2.36541e-06
-6.25245e-09
2.35799e-06
-1.46737e-07
2.35462e-06
-1.39054e-07
2.34721e-06
-1.31401e-07
2.34331e-06
-1.15406e-07
2.33571e-06
-7.0625e-08
2.32792e-06
-2.94276e-08
3.36107e-08
2.32337e-06
2.4551e-06
-6.09197e-07
2.47033e-06
6.63459e-07
2.45792e-06
-4.80281e-07
2.47563e-06
4.07547e-07
2.46213e-06
-3.65691e-07
2.45794e-06
-3.46326e-07
2.44619e-06
-1.63382e-07
2.45071e-06
1.02002e-08
2.45862e-06
3.46251e-07
2.47276e-06
3.38196e-07
2.47386e-06
1.35361e-07
2.47816e-06
1.00599e-07
2.47865e-06
-6.7466e-09
2.47051e-06
-1.38589e-07
2.46701e-06
-1.35556e-07
2.45966e-06
-1.24056e-07
2.45456e-06
-1.10301e-07
2.44773e-06
-6.37991e-08
2.43972e-06
-2.14161e-08
3.75607e-08
2.43577e-06
2.57231e-06
-5.97216e-07
2.58881e-06
6.46966e-07
2.5754e-06
-4.66873e-07
2.59403e-06
3.88914e-07
2.5793e-06
-3.50962e-07
2.57554e-06
-3.42561e-07
2.56343e-06
-1.51277e-07
2.56847e-06
5.16829e-09
2.5769e-06
3.37814e-07
2.59087e-06
3.24233e-07
2.59266e-06
1.33567e-07
2.59606e-06
9.71962e-08
2.5971e-06
-7.78462e-09
2.58851e-06
-1.29998e-07
2.58461e-06
-1.31656e-07
2.57762e-06
-1.17069e-07
2.57135e-06
-1.0403e-07
2.56509e-06
-5.75378e-08
2.55726e-06
-1.35867e-08
4.12366e-08
2.55358e-06
2.69518e-06
-5.84562e-07
2.71289e-06
6.2925e-07
2.69843e-06
-4.52415e-07
2.71802e-06
3.69324e-07
2.7022e-06
-3.35139e-07
2.69889e-06
-3.39247e-07
2.68645e-06
-1.38844e-07
2.69176e-06
-1.36432e-10
2.70076e-06
3.28809e-07
2.71433e-06
3.10666e-07
2.71696e-06
1.30932e-07
2.71951e-06
9.46501e-08
2.72097e-06
-9.24612e-09
2.71227e-06
-1.21301e-07
2.7077e-06
-1.27081e-07
2.70124e-06
-1.10615e-07
2.69403e-06
-9.68127e-08
2.68798e-06
-5.14855e-08
2.68071e-06
-6.31776e-09
4.48377e-08
2.67711e-06
2.82395e-06
-5.71239e-07
2.84286e-06
6.10332e-07
2.82733e-06
-4.36882e-07
2.84787e-06
3.48786e-07
2.83107e-06
-3.1834e-07
2.82819e-06
-3.36368e-07
2.81551e-06
-1.26162e-07
2.82085e-06
-5.47582e-09
2.83051e-06
3.19143e-07
2.84347e-06
2.97707e-07
2.84705e-06
1.27357e-07
2.84884e-06
9.28586e-08
2.85052e-06
-1.09264e-08
2.84206e-06
-1.12841e-07
2.83658e-06
-1.21599e-07
2.83068e-06
-1.04721e-07
2.82287e-06
-8.89994e-08
2.81668e-06
-4.52929e-08
2.8102e-06
1.56082e-10
4.83903e-08
2.80665e-06
2.9589e-06
-5.57247e-07
2.979e-06
5.90233e-07
2.9624e-06
-4.20284e-07
2.98384e-06
3.27348e-07
2.96618e-06
-3.00678e-07
2.96368e-06
-3.33871e-07
2.95088e-06
-1.13362e-07
2.95603e-06
-1.06218e-08
2.96649e-06
3.08687e-07
2.97865e-06
2.85544e-07
2.9832e-06
1.22803e-07
2.9844e-06
9.1659e-08
2.98604e-06
-1.2561e-08
2.97812e-06
-1.04923e-07
2.9716e-06
-1.15079e-07
2.96613e-06
-9.92502e-08
2.95813e-06
-8.10005e-08
2.95157e-06
-3.87361e-08
2.9459e-06
5.83049e-09
5.17536e-08
2.94253e-06
3.10035e-06
-5.42588e-07
3.1216e-06
5.68977e-07
3.10398e-06
-4.02656e-07
3.12624e-06
3.05087e-07
3.10783e-06
-2.82273e-07
3.10562e-06
-3.31663e-07
3.09287e-06
-1.00612e-07
3.09761e-06
-1.5357e-08
3.10899e-06
2.97308e-07
3.12022e-06
2.74311e-07
3.12572e-06
1.17309e-07
3.12654e-06
9.083e-08
3.12784e-06
-1.38554e-08
3.12069e-06
-9.77752e-08
3.11314e-06
-1.07524e-07
3.10782e-06
-9.39326e-08
3.1e-06
-7.31846e-08
3.09305e-06
-3.1782e-08
3.08798e-06
1.08956e-08
5.47076e-08
3.08503e-06
3.24859e-06
-5.27271e-07
3.27097e-06
5.46599e-07
3.25238e-06
-3.84064e-07
3.27535e-06
2.82113e-07
3.25634e-06
-2.63259e-07
3.2543e-06
-3.29622e-07
3.24179e-06
-8.8104e-08
3.24591e-06
-1.94762e-08
3.25832e-06
2.84893e-07
3.26857e-06
2.64063e-07
3.27488e-06
1.11001e-07
3.27559e-06
9.0117e-08
3.27627e-06
-1.45269e-08
3.27001e-06
-9.15209e-08
3.26157e-06
-9.90805e-08
3.25606e-06
-8.84281e-08
3.2487e-06
-6.58241e-08
3.24149e-06
-2.45683e-08
3.23675e-06
1.56386e-08
5.70797e-08
3.23437e-06
3.40397e-06
-5.11306e-07
3.42742e-06
5.2315e-07
3.40795e-06
-3.64602e-07
3.4315e-06
2.58563e-07
3.41204e-06
-2.43792e-07
3.41002e-06
-3.27601e-07
3.39795e-06
-7.60436e-08
3.40127e-06
-2.27956e-08
3.4148e-06
2.71369e-07
3.42408e-06
2.54776e-07
3.43101e-06
1.04079e-07
3.43187e-06
8.92487e-08
3.43168e-06
-1.43353e-08
3.42633e-06
-8.61681e-08
3.41723e-06
-8.99787e-08
3.41122e-06
-8.2423e-08
3.40444e-06
-5.90451e-08
3.39725e-06
-1.73692e-08
3.39255e-06
2.03361e-08
5.8835e-08
3.39079e-06
3.56682e-06
-4.94714e-07
3.59127e-06
4.98698e-07
3.57106e-06
-3.44389e-07
3.59502e-06
2.34602e-07
3.57527e-06
-2.24048e-07
3.57311e-06
-3.2544e-07
3.56171e-06
-6.46371e-08
3.56407e-06
-2.51584e-08
3.57872e-06
2.56722e-07
3.58714e-06
2.46351e-07
3.59443e-06
9.67927e-08
3.59569e-06
8.7988e-08
3.59449e-06
-1.31418e-08
3.58991e-06
-8.15861e-08
3.58045e-06
-8.05153e-08
3.5737e-06
-7.56751e-08
3.5675e-06
-5.2848e-08
3.56063e-06
-1.04942e-08
3.55583e-06
2.51397e-08
6.01126e-08
3.55455e-06
3.73751e-06
-4.77522e-07
3.76288e-06
4.7333e-07
3.74206e-06
-3.23571e-07
3.76624e-06
2.10424e-07
3.74641e-06
-2.0422e-07
3.74395e-06
-3.22975e-07
3.73339e-06
-5.40799e-08
3.73468e-06
-2.64449e-08
3.75041e-06
2.40994e-07
3.75812e-06
2.38637e-07
3.76549e-06
8.94209e-08
3.76734e-06
8.61426e-08
3.7651e-06
-1.0899e-08
3.76106e-06
-7.75534e-08
3.75156e-06
-7.10154e-08
3.74392e-06
-6.80348e-08
3.73821e-06
-4.71309e-08
3.73193e-06
-4.21971e-09
3.72702e-06
3.00483e-08
6.11589e-08
3.72598e-06
3.91643e-06
-4.59764e-07
3.94261e-06
4.4715e-07
3.92136e-06
-3.02321e-07
3.94555e-06
1.86239e-07
3.92583e-06
-1.84507e-07
3.92291e-06
-3.20052e-07
3.91337e-06
-4.45431e-08
3.9135e-06
-2.65763e-08
3.93022e-06
2.24278e-07
3.9374e-06
2.31452e-07
3.94459e-06
8.2235e-08
3.94716e-06
8.35766e-08
3.94389e-06
-7.62957e-09
3.94012e-06
-7.37885e-08
3.93091e-06
-6.18043e-08
3.92234e-06
-5.94599e-08
3.91695e-06
-4.17405e-08
3.91145e-06
1.27345e-09
3.90655e-06
3.49496e-08
6.22138e-08
3.9055e-06
4.10397e-06
-4.41483e-07
4.13084e-06
4.20283e-07
4.10935e-06
-2.80837e-07
4.13332e-06
1.62273e-07
4.11392e-06
-1.65104e-07
4.11039e-06
-3.16531e-07
4.10202e-06
-3.61666e-08
4.10096e-06
-2.55162e-08
4.11853e-06
2.06708e-07
4.12536e-06
2.24617e-07
4.13212e-06
7.54769e-08
4.13549e-06
8.02095e-08
4.13125e-06
-3.39396e-09
4.12745e-06
-6.99906e-08
4.11881e-06
-5.31568e-08
4.10944e-06
-5.00916e-08
4.10412e-06
-3.64266e-08
4.09951e-06
5.88688e-09
4.0948e-06
3.96641e-08
6.34496e-08
4.09356e-06
4.30055e-06
-4.22728e-07
4.32796e-06
3.9287e-07
4.30646e-06
-2.59334e-07
4.32998e-06
1.38745e-07
4.31106e-06
-1.46183e-07
4.30683e-06
-3.12301e-07
4.29972e-06
-2.90555e-08
4.29747e-06
-2.32658e-08
4.31573e-06
1.88452e-07
4.32241e-06
2.17936e-07
4.32847e-06
6.9419e-08
4.33271e-06
7.59661e-08
4.32758e-06
1.73869e-09
4.32341e-06
-6.58224e-08
4.31561e-06
-4.53556e-08
4.30572e-06
-4.02046e-08
4.3002e-06
-3.09069e-08
4.29647e-06
9.61193e-09
4.29216e-06
4.39831e-08
6.49681e-08
4.29064e-06
4.5066e-06
-4.03554e-07
4.5344e-06
3.65072e-07
4.5131e-06
-2.38035e-07
4.53599e-06
1.15856e-07
4.51769e-06
-1.27885e-07
4.51266e-06
-3.07275e-07
4.50689e-06
-2.3283e-08
4.50348e-06
-1.98522e-08
4.52223e-06
1.69696e-07
4.52898e-06
2.11193e-07
4.53401e-06
6.43835e-08
4.53918e-06
7.07948e-08
4.53326e-06
7.66317e-09
4.52838e-06
-6.09436e-08
4.52165e-06
-3.86244e-08
4.51166e-06
-3.02152e-08
4.50568e-06
-2.49278e-08
4.50272e-06
1.25748e-08
4.49904e-06
4.76612e-08
6.68054e-08
4.4972e-06
4.72259e-06
-3.84025e-07
4.7506e-06
3.3706e-07
4.72972e-06
-2.17154e-07
4.75182e-06
9.37574e-08
4.73424e-06
-1.10308e-07
4.72835e-06
-3.01381e-07
4.72397e-06
-1.89102e-08
4.71944e-06
-1.5323e-08
4.73848e-06
1.50661e-07
4.74554e-06
2.04136e-07
4.74917e-06
6.07521e-08
4.75526e-06
6.4701e-08
4.74886e-06
1.4068e-08
4.74286e-06
-5.49468e-08
4.73731e-06
-3.30738e-08
4.72771e-06
-2.06185e-08
4.72113e-06
-1.83453e-08
4.71866e-06
1.50452e-08
4.71585e-06
5.04725e-08
6.88863e-08
4.71377e-06
4.94898e-06
-3.64206e-07
4.97703e-06
3.09004e-07
4.95674e-06
-1.96862e-07
4.97797e-06
7.25295e-08
4.96118e-06
-9.35162e-08
4.95434e-06
-2.94544e-07
4.95143e-06
-1.59963e-08
4.94584e-06
-9.74005e-09
4.96489e-06
1.31616e-07
4.97256e-06
1.96469e-07
4.9744e-06
5.89077e-08
4.98126e-06
5.78393e-08
4.97492e-06
2.04086e-08
4.96756e-06
-4.75859e-08
4.963e-06
-2.85175e-08
4.95426e-06
-1.18696e-08
4.94714e-06
-1.12326e-08
4.94478e-06
1.74033e-08
4.94296e-06
5.22971e-08
7.09852e-08
4.94086e-06
5.18628e-06
-3.44168e-07
5.21421e-06
2.8107e-07
5.19463e-06
-1.7728e-07
5.21498e-06
5.21777e-08
5.19901e-06
-7.75393e-08
5.19113e-06
-2.8667e-07
5.18973e-06
-1.45952e-08
5.18318e-06
-3.19043e-09
5.20191e-06
1.12887e-07
5.21049e-06
1.87892e-07
5.21034e-06
5.90501e-08
5.21753e-06
5.06568e-08
5.2119e-06
2.60368e-08
5.20323e-06
-3.89166e-08
5.19924e-06
-2.4526e-08
5.19168e-06
-4.31301e-09
5.18427e-06
-3.82094e-09
5.18169e-06
1.99814e-08
5.18075e-06
5.3237e-08
7.27574e-08
5.17898e-06
5.435e-06
-3.23982e-07
5.46267e-06
2.534e-07
5.44385e-06
-1.58458e-07
5.4634e-06
3.26327e-08
5.44826e-06
-6.24052e-08
5.43922e-06
-2.77632e-07
5.43941e-06
-1.47804e-08
5.43198e-06
4.24004e-09
5.44999e-06
9.4879e-08
5.45978e-06
1.78094e-07
5.45771e-06
6.11267e-08
5.4645e-06
4.38666e-08
5.4602e-06
3.03316e-08
5.45057e-06
-2.92795e-08
5.44661e-06
-2.05675e-08
5.44038e-06
1.91654e-09
5.43302e-06
3.53509e-09
5.43003e-06
2.29694e-08
5.42967e-06
5.36e-08
7.38751e-08
5.42855e-06
5.6957e-06
-3.03719e-07
5.72299e-06
2.2611e-07
5.70491e-06
-1.4038e-07
5.72373e-06
1.38142e-08
5.70952e-06
-4.82036e-08
5.69915e-06
-2.67262e-07
5.70101e-06
-1.66411e-08
5.69281e-06
1.24415e-08
5.70959e-06
7.81062e-08
5.72085e-06
1.66831e-07
5.71718e-06
6.47952e-08
5.72286e-06
3.81856e-08
5.7203e-06
3.28961e-08
5.71021e-06
-1.91909e-08
5.70579e-06
-1.61537e-08
5.70078e-06
6.92707e-09
5.69388e-06
1.04424e-08
5.69047e-06
2.63726e-08
5.69031e-06
5.37655e-08
7.42017e-08
5.68998e-06
5.96893e-06
-2.83453e-07
5.99575e-06
1.99289e-07
5.97834e-06
-1.22972e-07
5.99646e-06
-4.30723e-09
5.98339e-06
-3.51331e-08
5.97149e-06
-2.55357e-07
5.97506e-06
-2.02166e-08
5.96633e-06
2.11752e-08
5.98119e-06
6.32473e-08
5.99407e-06
1.53952e-07
5.98939e-06
6.94725e-08
5.99339e-06
3.41817e-08
5.99261e-06
3.36808e-08
5.98269e-06
-9.27177e-09
5.97754e-06
-1.10094e-08
5.97345e-06
1.10167e-08
5.96728e-06
1.66214e-08
5.96362e-06
3.00271e-08
5.96336e-06
5.40286e-08
7.38434e-08
5.96372e-06
6.25529e-06
-2.63258e-07
6.28156e-06
1.73018e-07
6.26477e-06
-1.06181e-07
6.28209e-06
-2.16215e-08
6.2705e-06
-2.35459e-08
6.25683e-06
-2.41683e-07
6.26202e-06
-2.54133e-08
6.25317e-06
3.00309e-08
6.26542e-06
5.09959e-08
6.2798e-06
1.39574e-07
6.27488e-06
7.43884e-08
6.27691e-06
3.21572e-08
6.27762e-06
3.29673e-08
6.26847e-06
-1.25594e-10
6.26257e-06
-5.10897e-09
6.25902e-06
1.45729e-08
6.25371e-06
2.19251e-08
6.25004e-06
3.36946e-08
6.24955e-06
5.45201e-08
7.30597e-08
6.25034e-06
6.55543e-06
-2.43218e-07
6.58105e-06
1.47397e-07
6.5649e-06
-9.00295e-08
6.58113e-06
-3.78526e-08
6.57156e-06
-1.39762e-08
6.55587e-06
-2.25989e-07
6.56237e-06
-3.19212e-08
6.554e-06
3.84066e-08
6.56304e-06
4.19521e-08
6.57851e-06
1.24103e-07
6.57424e-06
7.86616e-08
6.57431e-06
3.20918e-08
6.57591e-06
3.1359e-08
6.56805e-06
7.74046e-09
6.56155e-06
1.38745e-09
6.55818e-06
1.79457e-08
6.55374e-06
2.6361e-08
6.5503e-06
3.71398e-08
6.54959e-06
5.52242e-08
7.21082e-08
6.55054e-06
6.87e-06
-2.23424e-07
6.89482e-06
1.22571e-07
6.87945e-06
-7.46585e-08
6.89419e-06
-5.2592e-08
6.88727e-06
-7.05596e-09
6.86942e-06
-2.08135e-07
6.8766e-06
-3.90997e-08
6.86946e-06
4.55388e-08
6.87504e-06
3.63781e-08
6.89093e-06
1.08212e-07
6.8881e-06
8.14861e-08
6.88642e-06
3.378e-08
6.88824e-06
2.9535e-08
6.88192e-06
1.40641e-08
6.87515e-06
8.15389e-09
6.87168e-06
2.14171e-08
6.86799e-06
3.00445e-08
6.86495e-06
4.01864e-08
6.86414e-06
5.60308e-08
7.11542e-08
6.8651e-06
7.19969e-06
-2.03981e-07
7.22351e-06
9.87503e-08
7.20921e-06
-6.03498e-08
7.22194e-06
-6.53254e-08
7.21831e-06
-3.42439e-09
7.19839e-06
-1.88214e-07
7.2053e-06
-4.60172e-08
7.20015e-06
5.06899e-08
7.20249e-06
3.40451e-08
7.21782e-06
9.28797e-08
7.21699e-06
8.23174e-08
7.214e-06
3.67644e-08
7.21544e-06
2.80931e-08
7.21066e-06
1.88485e-08
7.20399e-06
1.4822e-08
7.20027e-06
2.51337e-08
7.19716e-06
3.31567e-08
7.19461e-06
4.27338e-08
7.19384e-06
5.68023e-08
7.02429e-08
7.19475e-06
7.54525e-06
-1.85006e-07
7.56778e-06
7.62239e-08
7.55492e-06
-4.74964e-08
7.56511e-06
-7.55075e-08
7.56511e-06
-3.42922e-09
7.54365e-06
-1.66752e-07
7.54931e-06
-5.16748e-08
7.54656e-06
5.34335e-08
7.54636e-06
3.42443e-08
7.56014e-06
7.91019e-08
7.56137e-06
8.10901e-08
7.55772e-06
4.04162e-08
7.5584e-06
2.74085e-08
7.55495e-06
2.23047e-08
7.54874e-06
2.10299e-08
7.54475e-06
2.91255e-08
7.54198e-06
3.59198e-08
7.53998e-06
4.474e-08
7.53935e-06
5.74303e-08
6.93304e-08
7.54026e-06
7.90744e-06
-1.6663e-07
7.92838e-06
5.52759e-08
7.91739e-06
-3.6499e-08
7.92448e-06
-8.25967e-08
7.9279e-06
-6.84965e-09
7.90604e-06
-1.44893e-07
7.90955e-06
-5.51841e-08
7.90919e-06
5.37895e-08
7.90742e-06
3.60185e-08
7.91902e-06
6.74973e-08
7.92189e-06
7.82217e-08
7.91815e-06
4.41539e-08
7.91797e-06
2.75864e-08
7.91553e-06
2.47498e-08
7.91007e-06
2.64842e-08
7.9059e-06
3.33034e-08
7.90326e-06
3.85604e-08
7.90177e-06
4.62265e-08
7.90136e-06
5.78399e-08
6.83674e-08
7.90232e-06
8.28705e-06
-1.48995e-07
8.30619e-06
3.61326e-08
8.29736e-06
-2.76734e-08
8.30088e-06
-8.6118e-08
8.30706e-06
-1.30293e-08
8.28629e-06
-1.24118e-07
8.28704e-06
-5.59336e-08
8.28861e-06
5.22223e-08
8.2862e-06
3.84223e-08
8.29548e-06
5.82206e-08
8.29937e-06
7.43345e-08
8.29595e-06
4.75725e-08
8.29499e-06
2.85437e-08
8.29323e-06
2.65151e-08
8.28869e-06
3.10198e-08
8.28452e-06
3.74772e-08
8.28182e-06
4.12519e-08
8.28075e-06
4.73015e-08
8.28065e-06
5.79423e-08
6.73454e-08
8.28167e-06
8.68491e-06
-1.32241e-07
8.70208e-06
1.89625e-08
8.69561e-06
-2.12072e-08
8.69537e-06
-8.58731e-08
8.70336e-06
-2.10227e-08
8.68508e-06
-1.0584e-07
8.68288e-06
-5.37346e-08
8.68553e-06
4.95739e-08
8.68328e-06
4.06733e-08
8.69043e-06
5.10767e-08
8.69477e-06
6.9992e-08
8.69184e-06
5.05006e-08
8.69022e-06
3.01602e-08
8.68892e-06
2.78177e-08
8.68534e-06
3.45985e-08
8.68142e-06
4.13964e-08
8.67861e-06
4.40659e-08
8.67773e-06
4.81822e-08
8.67802e-06
5.7647e-08
6.62819e-08
8.67909e-06
9.10189e-06
-1.16511e-07
9.11691e-06
3.93701e-09
9.1129e-06
-1.71905e-08
9.10926e-06
-8.22388e-08
9.1177e-06
-2.9463e-08
9.10301e-06
-9.11476e-08
9.09821e-06
-4.89379e-08
9.10094e-06
4.68513e-08
9.09921e-06
4.24016e-08
9.1047e-06
4.55884e-08
9.10913e-06
6.5556e-08
9.10668e-06
5.29562e-08
9.10453e-06
3.23087e-08
9.10349e-06
2.88587e-08
9.10085e-06
3.72379e-08
9.0974e-06
4.4848e-08
9.09454e-06
4.69247e-08
9.09361e-06
4.91117e-08
9.09431e-06
5.69461e-08
6.51228e-08
9.09547e-06
9.53888e-06
-1.01935e-07
9.55163e-06
-8.81407e-09
9.54999e-06
-1.5547e-08
9.54376e-06
-7.60034e-08
9.55116e-06
-3.68703e-08
9.54052e-06
-8.05034e-08
9.5341e-06
-4.25215e-08
9.53595e-06
4.50092e-08
9.53476e-06
4.3589e-08
9.53909e-06
4.1255e-08
9.54344e-06
6.12078e-08
9.54143e-06
5.49635e-08
9.53881e-06
3.49278e-08
9.53786e-06
2.98135e-08
9.53611e-06
3.89892e-08
9.53326e-06
4.76907e-08
9.53054e-06
4.96512e-08
9.5294e-06
5.02519e-08
9.53034e-06
5.60022e-08
6.37136e-08
9.53175e-06
9.99684e-06
-8.86351e-08
1.00072e-05
-1.91854e-08
1.00077e-05
-1.60496e-08
9.99983e-06
-6.81284e-08
1.0005e-05
-4.20663e-08
9.99818e-06
-7.36534e-08
9.99151e-06
-3.58559e-08
9.99194e-06
4.45831e-08
9.99088e-06
4.4645e-08
9.99439e-06
3.77538e-08
9.99865e-06
5.69457e-08
9.99714e-06
5.64676e-08
9.99407e-06
3.79977e-08
9.99302e-06
3.08699e-08
9.99204e-06
3.99699e-08
9.98993e-06
4.97938e-08
9.98751e-06
5.2077e-08
9.98617e-06
5.15855e-08
9.98707e-06
5.51109e-08
6.19212e-08
9.98886e-06
1.04767e-05
-7.67137e-08
1.04846e-05
-2.708e-08
1.0487e-05
-1.84213e-08
1.04784e-05
-5.95656e-08
1.04807e-05
-4.43332e-08
1.04767e-05
-6.96961e-08
1.04712e-05
-3.03473e-08
1.04703e-05
4.55097e-08
1.04687e-05
4.62018e-08
1.04714e-05
3.50479e-08
1.04757e-05
5.26674e-08
1.04748e-05
5.73982e-08
1.04714e-05
4.1353e-08
1.047e-05
3.22749e-08
1.04696e-05
4.03725e-08
1.04683e-05
5.10746e-08
1.04664e-05
5.40643e-08
1.0465e-05
5.29526e-08
1.04656e-05
5.45297e-08
5.98108e-08
1.04677e-05
1.09796e-05
-6.62483e-08
1.09849e-05
-3.24164e-08
1.09888e-05
-2.23583e-08
1.09805e-05
-5.11954e-08
1.09795e-05
-4.34199e-08
1.09772e-05
-6.73361e-08
1.09739e-05
-2.70633e-08
1.09722e-05
4.72299e-08
1.09696e-05
4.87608e-08
1.09713e-05
3.33413e-08
1.09756e-05
4.83844e-08
1.09754e-05
5.7588e-08
1.0972e-05
4.47987e-08
1.09701e-05
3.41784e-08
1.097e-05
4.04541e-08
1.09695e-05
5.15531e-08
1.09681e-05
5.54962e-08
1.09669e-05
5.41564e-08
1.09671e-05
5.43109e-08
5.77031e-08
1.09692e-05
1.15064e-05
-5.72708e-08
1.15092e-05
-3.52075e-08
1.15143e-05
-2.74381e-08
1.15069e-05
-4.38489e-08
1.1503e-05
-3.95431e-08
1.15007e-05
-6.50399e-08
1.15002e-05
-2.65648e-08
1.14987e-05
4.87919e-08
1.14949e-05
5.25746e-08
1.14952e-05
3.30172e-08
1.14993e-05
4.42435e-08
1.15e-05
5.68677e-08
1.14968e-05
4.80685e-08
1.14943e-05
3.66265e-08
1.14943e-05
4.04728e-08
1.14945e-05
5.13802e-08
1.14937e-05
5.6294e-08
1.14928e-05
5.50437e-08
1.14928e-05
5.42618e-08
5.59588e-08
1.14946e-05
1.20583e-05
-4.97462e-08
1.20587e-05
-3.56578e-08
1.20643e-05
-3.30313e-08
1.20587e-05
-3.8204e-08
1.20525e-05
-3.3396e-08
1.20488e-05
-6.13318e-08
1.20509e-05
-2.86056e-08
1.20508e-05
4.88993e-08
1.20458e-05
5.75156e-08
1.20443e-05
3.45094e-08
1.2048e-05
4.05379e-08
1.20497e-05
5.52358e-08
1.20469e-05
5.08113e-08
1.20441e-05
3.94769e-08
1.20438e-05
4.07306e-08
1.20445e-05
5.07042e-08
1.20443e-05
5.64653e-08
1.20438e-05
5.55834e-08
1.20439e-05
5.41043e-08
5.46896e-08
1.20452e-05
1.26364e-05
-4.35677e-08
1.26349e-05
-3.41784e-08
1.26403e-05
-3.8365e-08
1.26367e-05
-3.46656e-08
1.26293e-05
-2.59576e-08
1.26232e-05
-5.52097e-08
1.26267e-05
-3.20882e-08
1.2629e-05
4.6507e-08
1.26238e-05
6.27706e-08
1.26203e-05
3.80137e-08
1.2623e-05
3.78267e-08
1.26254e-05
5.27892e-08
1.26235e-05
5.27342e-08
1.26205e-05
4.24626e-08
1.26198e-05
4.1448e-08
1.26208e-05
4.97028e-08
1.26213e-05
5.60244e-08
1.2621e-05
5.58072e-08
1.26214e-05
5.3696e-08
5.3677e-08
1.26225e-05
1.32419e-05
-3.85573e-08
1.32392e-05
-3.14105e-08
1.32434e-05
-4.26062e-08
1.3242e-05
-3.32584e-08
1.32343e-05
-1.82675e-08
1.32258e-05
-4.66681e-08
1.32287e-05
-3.50226e-08
1.32341e-05
4.10513e-08
1.32298e-05
6.70879e-08
1.32245e-05
4.3342e-08
1.32256e-05
3.67179e-08
1.32285e-05
4.9851e-08
1.32278e-05
5.35314e-08
1.32248e-05
4.53985e-08
1.32237e-05
4.25277e-08
1.32247e-05
4.87592e-08
1.32257e-05
5.49769e-08
1.32258e-05
5.56866e-08
1.32264e-05
5.31175e-08
5.259e-08
1.32275e-05
1.38761e-05
-3.4482e-08
1.38727e-05
-2.8e-08
1.38752e-05
-4.50931e-08
1.38756e-05
-3.36598e-08
1.38686e-05
-1.12939e-08
1.38582e-05
-3.62441e-08
1.38587e-05
-3.55109e-08
1.38669e-05
3.28484e-08
1.38648e-05
6.91044e-08
1.38583e-05
4.98405e-08
1.38575e-05
3.7558e-08
1.38604e-05
4.70005e-08
1.38607e-05
5.32198e-08
1.38583e-05
4.77748e-08
1.38568e-05
4.39791e-08
1.38576e-05
4.80424e-08
1.3859e-05
5.35433e-08
1.38596e-05
5.50569e-08
1.38602e-05
5.24874e-08
5.12819e-08
1.38616e-05
1.45403e-05
-3.10852e-08
1.45367e-05
-2.44338e-08
1.45371e-05
-4.55214e-08
1.45386e-05
-3.51656e-08
1.45332e-05
-5.87663e-09
1.45217e-05
-2.47705e-08
1.4519e-05
-3.27974e-08
1.45283e-05
2.35601e-08
1.45296e-05
6.78338e-08
1.45231e-05
5.63425e-08
1.45203e-05
4.03735e-08
1.45225e-05
4.48223e-08
1.45236e-05
5.20588e-08
1.45221e-05
4.92723e-08
1.45206e-05
4.5512e-08
1.45209e-05
4.77088e-08
1.45224e-05
5.20203e-08
1.45236e-05
5.38881e-08
1.45244e-05
5.17366e-08
4.98516e-08
1.45258e-05
1.52359e-05
-2.81065e-08
1.52326e-05
-2.11175e-08
1.52309e-05
-4.37981e-08
1.52327e-05
-3.70182e-08
1.52292e-05
-2.38528e-09
1.52178e-05
-1.33117e-08
1.52119e-05
-2.69616e-08
1.52202e-05
1.528e-08
1.52249e-05
6.30963e-08
1.52199e-05
6.14154e-08
1.52155e-05
4.47646e-08
1.52163e-05
4.39621e-08
1.52181e-05
5.02699e-08
1.52175e-05
4.99386e-08
1.52162e-05
4.67331e-08
1.52163e-05
4.76473e-08
1.52177e-05
5.06573e-08
1.52192e-05
5.23307e-08
1.52202e-05
5.0754e-08
4.83955e-08
1.52217e-05
1.59645e-05
-2.53049e-08
1.59617e-05
-1.83209e-08
1.5958e-05
-4.01011e-08
1.59594e-05
-3.84073e-08
1.59579e-05
-8.5289e-10
1.59475e-05
-2.89443e-09
1.59393e-05
-1.87833e-08
1.59448e-05
9.76934e-09
1.59521e-05
5.57972e-08
1.59496e-05
6.38913e-08
1.59445e-05
4.98545e-08
1.5944e-05
4.45367e-08
1.59457e-05
4.85465e-08
1.59459e-05
4.97156e-08
1.59451e-05
4.75152e-08
1.59451e-05
4.76332e-08
1.59463e-05
4.94945e-08
1.5948e-05
5.06308e-08
1.59493e-05
4.9493e-08
4.6926e-08
1.59507e-05
1.67278e-05
-2.25165e-08
1.67257e-05
-1.61672e-08
1.67204e-05
-3.48842e-08
1.67205e-05
-3.84397e-08
1.67207e-05
-1.0823e-09
1.67121e-05
5.75453e-09
1.67025e-05
-9.26564e-09
1.67048e-05
7.55754e-09
1.67128e-05
4.77021e-08
1.67134e-05
6.33708e-08
1.67088e-05
5.43963e-08
1.67069e-05
4.64247e-08
1.67081e-05
4.74232e-08
1.6709e-05
4.87995e-08
1.67088e-05
4.77298e-08
1.67089e-05
4.74998e-08
1.67099e-05
4.84773e-08
1.67116e-05
4.8915e-08
1.67131e-05
4.79844e-08
4.5428e-08
1.67146e-05
1.75275e-05
-1.96617e-08
1.75261e-05
-1.47407e-08
1.75199e-05
-2.8739e-08
1.7518e-05
-3.65501e-08
1.75193e-05
-2.33105e-09
1.75129e-05
1.21711e-08
1.7503e-05
5.67107e-10
1.75023e-05
8.31811e-09
1.75094e-05
4.05892e-08
1.75125e-05
6.02975e-08
1.75096e-05
5.72714e-08
1.75068e-05
4.92179e-08
1.75072e-05
4.69963e-08
1.75083e-05
4.77749e-08
1.75087e-05
4.72427e-08
1.75091e-05
4.71096e-08
1.75101e-05
4.7528e-08
1.75117e-05
4.72611e-08
1.75135e-05
4.62378e-08
4.38927e-08
1.7515e-05
1.83654e-05
-1.67461e-08
1.83645e-05
-1.3825e-08
1.83582e-05
-2.24062e-08
1.83544e-05
-3.27346e-08
1.83556e-05
-3.60657e-09
1.83514e-05
1.64132e-08
1.83424e-05
9.54661e-09
1.83392e-05
1.15077e-08
1.83444e-05
3.54394e-08
1.83489e-05
5.57698e-08
1.8348e-05
5.8192e-08
1.83454e-05
5.1851e-08
1.83448e-05
4.7525e-08
1.83458e-05
4.67879e-08
1.83466e-05
4.64342e-08
1.83475e-05
4.62242e-08
1.83485e-05
4.65052e-08
1.83501e-05
4.57396e-08
1.8352e-05