/*--------------------------------*- C++ -*----------------------------------*\
| =========                 |                                                 |
| \\      /  F ield         | OpenFOAM: The Open Source CFD Toolbox           |
|  \\    /   O peration     | Version:  2106                                  |
|   \\  /    A nd           | Website:  www.openfoam.com                      |
|    \\/     M anipulation  |                                                 |
\*---------------------------------------------------------------------------*/
FoamFile
{
    version     2.0;
    format      ascii;
    arch        "LSB;label=32;scalar=64";
    class       volVectorField;
    location    "0.88";
    object      U;
}
// * * * * * * * * * * * * * * * * * * * * * * * * * * * * * * * * * * * * * //

dimensions      [0 1 -1 0 0 0 0];

internalField   nonuniform List<vector> 
9600
(
(0.859824 0.00121042 0)
(1.16175 0.00391965 0)
(0.816492 -0.00772629 0)
(1.12608 -0.00152586 0)
(0.915101 0.00200201 0)
(1.14598 0.00149828 0)
(0.838924 0.00667158 0)
(1.14075 0.00344249 0)
(0.846409 -0.00515586 0)
(1.11454 0.00285722 0)
(0.891458 -0.00591014 0)
(1.11325 -0.00120788 0)
(0.871583 -0.00841541 0)
(1.10783 3.14594e-05 0)
(0.872458 -0.00088039 0)
(1.10925 0.00539062 0)
(0.868671 0.00115655 0)
(1.109 0.00280964 0)
(0.856752 -0.000318758 0)
(1.11253 0.00056716 0)
(0.869037 0.000973428 0)
(1.1491 0.00441856 0)
(0.835703 -0.00757193 0)
(1.11578 -0.00233295 0)
(0.92688 0.00155644 0)
(1.13367 0.00252257 0)
(0.859023 0.00658698 0)
(1.11856 0.00363389 0)
(0.876405 -0.00501703 0)
(1.09049 0.0024273 0)
(0.923253 -0.00610872 0)
(1.08617 -0.000718253 0)
(0.912954 -0.00838495 0)
(1.07225 0.000145959 0)
(0.923406 -0.00104215 0)
(1.05756 0.00544088 0)
(0.941428 0.00122372 0)
(1.03141 0.00270737 0)
(0.960235 0.000345102 0)
(0.996443 0.00067373 0)
(0.887112 0.000791302 0)
(1.12534 0.00479954 0)
(0.867118 -0.00751964 0)
(1.09464 -0.0028974 0)
(0.947964 0.00129467 0)
(1.10967 0.00333818 0)
(0.895344 0.0065539 0)
(1.084 0.00361804 0)
(0.919055 -0.00484603 0)
(1.05473 0.00189373 0)
(0.960131 -0.00606713 0)
(1.04925 -0.000531835 0)
(0.956655 -0.00810774 0)
(1.02911 -7.87889e-05 0)
(0.967299 -0.000626657 0)
(1.01369 0.00493978 0)
(0.98073 0.00209539 0)
(0.995507 0.00207122 0)
(0.985316 0.00172453 0)
(0.980632 0.000779111 0)
(0.911129 0.000680054 0)
(1.0948 0.00500723 0)
(0.904031 -0.00741814 0)
(1.06709 -0.00340925 0)
(0.971267 0.0011067 0)
(1.07953 0.00386796 0)
(0.934553 0.00672234 0)
(1.04985 0.00346657 0)
(0.956545 -0.0045772 0)
(1.02399 0.0014278 0)
(0.984895 -0.00596758 0)
(1.02106 -0.000557037 0)
(0.981274 -0.00768904 0)
(1.00214 -0.000285742 0)
(0.983741 -0.000313432 0)
(0.9948 0.00463681 0)
(0.988274 0.00247632 0)
(0.98819 0.00194565 0)
(0.985285 0.00224274 0)
(0.982142 0.00138734 0)
(0.936769 0.000623525 0)
(1.06341 0.00510114 0)
(0.938765 -0.00727791 0)
(1.04032 -0.0038707 0)
(0.989943 0.00094963 0)
(1.05067 0.00421654 0)
(0.965424 0.00698959 0)
(1.02505 0.00330504 0)
(0.980589 -0.00430669 0)
(1.00616 0.00108389 0)
(0.995867 -0.00588573 0)
(1.00609 -0.000589956 0)
(0.990296 -0.00725494 0)
(0.991125 -0.000375365 0)
(0.986214 -9.21838e-05 0)
(0.98861 0.00440039 0)
(0.988056 0.00275237 0)
(0.987165 0.00185755 0)
(0.985176 0.00268832 0)
(0.982963 0.00186668 0)
(0.959818 0.000615041 0)
(1.03675 0.00511042 0)
(0.965936 -0.00714243 0)
(1.01998 -0.00424344 0)
(1.00085 0.000840815 0)
(1.02822 0.00444517 0)
(0.984232 0.00722817 0)
(1.01145 0.00319137 0)
(0.992838 -0.00409675 0)
(0.999152 0.000872026 0)
(0.999157 -0.00579343 0)
(0.999729 -0.000605408 0)
(0.992615 -0.00685272 0)
(0.988068 -0.000387674 0)
(0.986044 0.000100592 0)
(0.98692 0.00417768 0)
(0.987998 0.00294911 0)
(0.987723 0.00175296 0)
(0.986399 0.00304423 0)
(0.984541 0.00236939 0)
(0.977522 0.000637732 0)
(1.01796 0.00506852 0)
(0.984023 -0.0070339 0)
(1.00784 -0.00450018 0)
(1.00482 0.000779465 0)
(1.01329 0.00458316 0)
(0.993278 0.00738065 0)
(1.00599 0.00312124 0)
(0.998389 -0.00393758 0)
(0.997813 0.000749072 0)
(0.999929 -0.00566989 0)
(0.997338 -0.000627695 0)
(0.993039 -0.00647607 0)
(0.987907 -0.000390563 0)
(0.986508 0.000289397 0)
(0.987237 0.00393664 0)
(0.988839 0.003078 0)
(0.989118 0.00166081 0)
(0.988085 0.00330358 0)
(0.986652 0.00289559 0)
(0.989146 0.000670472 0)
(1.0071 0.00500729 0)
(0.994456 -0.006956 0)
(1.0022 -0.00465201 0)
(1.00466 0.000759202 0)
(1.00433 0.00465792 0)
(0.996757 0.0074388 0)
(1.00474 0.00306499 0)
(1.00106 -0.00380485 0)
(0.998517 0.00066888 0)
(1.00034 -0.00550984 0)
(0.996618 -0.000656225 0)
(0.993189 -0.00611471 0)
(0.988646 -0.000416474 0)
(0.987692 0.00046905 0)
(0.988544 0.00367912 0)
(0.990258 0.00316816 0)
(0.990776 0.00160836 0)
(0.989845 0.00348278 0)
(0.988656 0.00343117 0)
(0.995576 0.000698622 0)
(1.00218 0.00494317 0)
(0.999774 -0.0069004 0)
(1.00017 -0.004726 0)
(1.00292 0.000779264 0)
(0.9993 0.00468674 0)
(0.997897 0.00741615 0)
(1.00507 0.00300113 0)
(1.00257 -0.00368252 0)
(0.999605 0.000608453 0)
(1.00083 -0.00531644 0)
(0.996664 -0.000684116 0)
(0.993504 -0.00576123 0)
(0.989649 -0.000472342 0)
(0.989172 0.000631904 0)
(0.990171 0.00342139 0)
(0.991844 0.0032299 0)
(0.99234 0.0016149 0)
(0.991413 0.00359686 0)
(0.9903 0.00396447 0)
(0.998429 0.000716711 0)
(1.00075 0.00487794 0)
(1.00225 -0.00685097 0)
(0.999434 -0.00474671 0)
(1.001 0.000832643 0)
(0.996699 0.00467743 0)
(0.998313 0.00733456 0)
(1.00571 0.00292354 0)
(1.00346 -0.00356158 0)
(1.00047 0.000557317 0)
(1.00132 -0.00509856 0)
(0.997084 -0.000711033 0)
(0.994043 -0.00541269 0)
(0.990726 -0.000552612 0)
(0.990616 0.000770875 0)
(0.991701 0.00317937 0)
(0.993245 0.00326253 0)
(0.993608 0.00168748 0)
(0.992631 0.00366253 0)
(0.991522 0.00448133 0)
(0.999259 0.000725139 0)
(1.00091 0.00480751 0)
(1.00337 -0.00679167 0)
(0.998844 -0.00473124 0)
(0.999366 0.000903959 0)
(0.9956 0.00463535 0)
(0.998558 0.00721668 0)
(1.00625 0.00283544 0)
(1.00391 -0.00343601 0)
(1.00093 0.000507647 0)
(1.00169 -0.00486885 0)
(0.99765 -0.000740925 0)
(0.994726 -0.00506821 0)
(0.991789 -0.000641883 0)
(0.991855 0.000887508 0)
(0.992934 0.00296344 0)
(0.994288 0.00326768 0)
(0.994505 0.00182422 0)
(0.99347 0.00370139 0)
(0.992352 0.00496276 0)
(0.999171 0.000726408 0)
(1.00159 0.00472785 0)
(1.00393 -0.00671197 0)
(0.998124 -0.00469086 0)
(0.998065 0.000976866 0)
(0.995383 0.00456514 0)
(0.99876 0.00708039 0)
(1.00659 0.00274225 0)
(1.00407 -0.00330274 0)
(1.00103 0.00045741 0)
(1.00188 -0.00463913 0)
(0.998211 -0.000777931 0)
(0.995436 -0.00472724 0)
(0.99277 -0.000733069 0)
(0.99284 0.000984691 0)
(0.993834 0.00278031 0)
(0.994975 0.00325157 0)
(0.995068 0.00201394 0)
(0.994003 0.00373462 0)
(0.992885 0.00538643 0)
(0.998796 0.000722865 0)
(1.0023 0.00463697 0)
(1.00424 -0.00660786 0)
(0.997365 -0.00463168 0)
(0.997069 0.00104054 0)
(0.995603 0.00447074 0)
(0.998941 0.00693701 0)
(1.00674 0.00264795 0)
(1.00407 -0.00316101 0)
(1.00091 0.00040836 0)
(1.00194 -0.00441786 0)
(0.998679 -0.000823013 0)
(0.996073 -0.00439428 0)
(0.993617 -0.000815097 0)
(0.993596 0.00106187 0)
(0.994462 0.00263655 0)
(0.995397 0.00321807 0)
(0.995397 0.00223987 0)
(0.994339 0.00378568 0)
(0.993236 0.00573948 0)
(0.998427 0.000716069 0)
(1.00285 0.00453485 0)
(1.00444 -0.00647992 0)
(0.996712 -0.00455734 0)
(0.99635 0.00109073 0)
(0.995964 0.00435557 0)
(0.999103 0.00679257 0)
(1.00677 0.00255505 0)
(1.00401 -0.0030115 0)
(1.00071 0.000361366 0)
(1.0019 -0.00420942 0)
(0.99902 -0.000873743 0)
(0.996577 -0.00407522 0)
(0.994308 -0.000874859 0)
(0.994166 0.00112279 0)
(0.994898 0.00253209 0)
(0.995655 0.00317384 0)
(0.995591 0.00247738 0)
(0.994576 0.00386963 0)
(0.993504 0.00602017 0)
(0.998163 0.000707014 0)
(1.0032 0.00442262 0)
(1.00456 -0.00633129 0)
(0.996245 -0.00447086 0)
(0.995879 0.00112805 0)
(0.996309 0.00422302 0)
(0.999239 0.00664886 0)
(1.00671 0.00246647 0)
(1.00394 -0.00285702 0)
(1.0005 0.000320703 0)
(1.00183 -0.00401509 0)
(0.999244 -0.00092592 0)
(0.996936 -0.00377141 0)
(0.994846 -0.00091415 0)
(0.994592 0.0011716 0)
(0.995204 0.00245812 0)
(0.995818 0.00313554 0)
(0.995719 0.00270405 0)
(0.994773 0.0039836 0)
(0.99375 0.00623033 0)
(0.998015 0.000696371 0)
(1.00338 0.004302 0)
(1.00461 -0.00616625 0)
(0.995975 -0.00437486 0)
(0.995614 0.00115526 0)
(0.996581 0.00407694 0)
(0.999334 0.00650567 0)
(1.0066 0.00238054 0)
(1.00387 -0.00270211 0)
(1.00034 0.000289365 0)
(1.00175 -0.00383506 0)
(0.99938 -0.000974333 0)
(0.997167 -0.00348317 0)
(0.995254 -0.000933034 0)
(0.994909 0.00120779 0)
(0.995422 0.00240783 0)
(0.995925 0.00311473 0)
(0.995815 0.00291325 0)
(0.994958 0.00411948 0)
(0.994003 0.00638435 0)
(0.997957 0.00068455 0)
(1.00344 0.00417482 0)
(1.00461 -0.00598892 0)
(0.995866 -0.00427176 0)
(0.99551 0.00117558 0)
(0.99678 0.00392171 0)
(0.999382 0.00636073 0)
(1.00645 0.00229777 0)
(1.0038 -0.00255171 0)
(1.00023 0.000270235 0)
(1.00168 -0.00366904 0)
(0.999457 -0.00101452 0)
(0.997304 -0.00321034 0)
(0.995564 -0.000935144 0)
(0.995149 0.00123761 0)
(0.995581 0.00237104 0)
(0.996001 0.00311161 0)
(0.995898 0.00310981 0)
(0.995144 0.00426784 0)
(0.994271 0.00649925 0)
(0.997961 0.000671847 0)
(1.00341 0.0040426 0)
(1.00456 -0.0058028 0)
(0.995871 -0.0041633 0)
(0.99552 0.00119147 0)
(0.99693 0.00376093 0)
(0.999388 0.0062122 0)
(1.00627 0.00222156 0)
(1.00374 -0.00240874 0)
(1.00015 0.000264721 0)
(1.00162 -0.00351368 0)
(0.999502 -0.00104583 0)
(0.99738 -0.00295031 0)
(0.995808 -0.000927561 0)
(0.99534 0.00126784 0)
(0.995705 0.00233561 0)
(0.996063 0.00312814 0)
(0.995979 0.00329837 0)
(0.995335 0.00441284 0)
(0.994555 0.00657975 0)
(0.998001 0.00065842 0)
(1.00334 0.00390679 0)
(1.00447 -0.00561102 0)
(0.995943 -0.0040504 0)
(0.995604 0.00120372 0)
(0.997054 0.00359827 0)
(0.999364 0.00605838 0)
(1.00608 0.00215326 0)
(1.00368 -0.00227732 0)
(1.00009 0.000273751 0)
(1.00157 -0.00336807 0)
(0.999532 -0.00106883 0)
(0.99742 -0.00269703 0)
(0.996014 -0.000906813 0)
(0.995506 0.00130576 0)
(0.995814 0.00230294 0)
(0.996126 0.00315538 0)
(0.996066 0.00348015 0)
(0.995535 0.00454315 0)
(0.994851 0.0066291 0)
(0.998061 0.000644179 0)
(1.00324 0.00376861 0)
(1.00437 -0.00541532 0)
(0.99605 -0.00393403 0)
(0.995731 0.00121256 0)
(0.997168 0.00343702 0)
(0.999325 0.00589676 0)
(1.00587 0.002095 0)
(1.00362 -0.00215922 0)
(1.00004 0.000297256 0)
(1.00152 -0.00323248 0)
(0.999557 -0.00108261 0)
(0.997444 -0.00244775 0)
(0.996199 -0.000882951 0)
(0.995662 0.00135306 0)
(0.995919 0.00228081 0)
(0.996199 0.00317847 0)
(0.996163 0.00365968 0)
(0.99574 0.00466134 0)
(0.995157 0.00665117 0)
(0.998131 0.000629101 0)
(1.00313 0.00362849 0)
(1.00425 -0.00521659 0)
(0.996175 -0.0038137 0)
(0.995878 0.00121762 0)
(0.997281 0.00327909 0)
(0.999282 0.0057272 0)
(1.00566 0.00204496 0)
(1.00357 -0.00205418 0)
(0.999991 0.000332517 0)
(1.00148 -0.00309885 0)
(0.999584 -0.00109469 0)
(0.997461 -0.00219768 0)
(0.996376 -0.000868099 0)
(0.995818 0.00140584 0)
(0.996025 0.00227826 0)
(0.99629 0.00318897 0)
(0.99627 0.0038375 0)
(0.995949 0.00477638 0)
(0.995467 0.00664854 0)
(0.998204 0.000613098 0)
(1.00302 0.00348703 0)
(1.00413 -0.00501645 0)
(0.996308 -0.00368843 0)
(0.996033 0.0012173 0)
(0.997394 0.00312775 0)
(0.99924 0.00554636 0)
(1.00544 0.00200621 0)
(1.00352 -0.00196367 0)
(0.999944 0.000377703 0)
(1.00143 -0.00296434 0)
(0.999616 -0.00111007 0)
(0.997475 -0.00194058 0)
(0.996549 -0.000852943 0)
(0.995981 0.00145941 0)
(0.996134 0.00229888 0)
(0.996397 0.00318365 0)
(0.996392 0.00400228 0)
(0.996159 0.00489226 0)
(0.995778 0.00662338 0)
(0.998279 0.000596092 0)
(1.00291 0.00334512 0)
(1.004 -0.00481666 0)
(0.996445 -0.00355812 0)
(0.99619 0.00121115 0)
(0.997507 0.00298393 0)
(0.999202 0.00535501 0)
(1.00522 0.00197817 0)
(1.00346 -0.00188519 0)
(0.999898 0.000429545 0)
(1.00137 -0.00282294 0)
(0.999655 -0.00113287 0)
(0.99749 -0.00167102 0)
(0.99672 -0.000834863 0)
(0.996154 0.00150418 0)
(0.996246 0.00234599 0)
(0.996521 0.00317363 0)
(0.996529 0.00414527 0)
(0.996366 0.00501205 0)
(0.996087 0.00657837 0)
(0.998355 0.000577668 0)
(1.0028 0.00320398 0)
(1.00388 -0.00461858 0)
(0.996585 -0.00342202 0)
(0.996348 0.00119862 0)
(0.99762 0.00284766 0)
(0.999168 0.00515617 0)
(1.005 0.00195785 0)
(1.00342 -0.00181507 0)
(0.999852 0.000482283 0)
(1.00132 -0.00266713 0)
(0.999703 -0.00116753 0)
(0.997506 -0.00139824 0)
(0.996887 -0.000805541 0)
(0.996339 0.00153485 0)
(0.996361 0.00242216 0)
(0.996658 0.00316981 0)
(0.996682 0.00426057 0)
(0.99657 0.00513775 0)
(0.996389 0.00651729 0)
(0.99843 0.000557739 0)
(1.00268 0.0030641 0)
(1.00375 -0.00442358 0)
(0.996728 -0.00327784 0)
(0.996505 0.00117664 0)
(0.997731 0.00272145 0)
(0.999139 0.00494671 0)
(1.00478 0.00194634 0)
(1.00337 -0.00175209 0)
(0.99981 0.000530017 0)
(1.00125 -0.00249247 0)
(0.999759 -0.00121469 0)
(0.997526 -0.00112754 0)
(0.997049 -0.000758609 0)
(0.996537 0.00154528 0)
(0.99648 0.00252157 0)
(0.996804 0.00317538 0)
(0.996853 0.00434161 0)
(0.996771 0.00526717 0)
(0.996681 0.00644974 0)
(0.998506 0.0005364 0)
(1.00257 0.00292574 0)
(1.00363 -0.00423266 0)
(0.996874 -0.00312596 0)
(0.996663 0.00114641 0)
(0.997841 0.0026044 0)
(0.999114 0.00472873 0)
(1.00455 0.00193717 0)
(1.00332 -0.00168929 0)
(0.999772 0.00056741 0)
(1.00118 -0.00229665 0)
(0.999825 -0.00126961 0)
(0.997553 -0.000858961 0)
(0.997203 -0.000684041 0)
(0.99675 0.00153698 0)
(0.996606 0.0026402 0)
(0.996957 0.00319799 0)
(0.997043 0.00438596 0)
(0.99697 0.00539244 0)
(0.996958 0.00639047 0)
(0.998582 0.000513071 0)
(1.00246 0.00279056 0)
(1.0035 -0.00404764 0)
(0.99702 -0.00296558 0)
(0.996821 0.00110819 0)
(0.99795 0.00249522 0)
(0.999091 0.00450826 0)
(1.00433 0.00192653 0)
(1.00328 -0.00161932 0)
(0.99974 0.000589289 0)
(1.0011 -0.00208409 0)
(0.999899 -0.00132301 0)
(0.99759 -0.000608283 0)
(0.997349 -0.00057366 0)
(0.996976 0.00151537 0)
(0.996741 0.00276762 0)
(0.997111 0.00324153 0)
(0.99725 0.00439223 0)
(0.997172 0.00550106 0)
(0.997213 0.00636046 0)
(0.998658 0.000487608 0)
(1.00235 0.00265989 0)
(1.00338 -0.00387074 0)
(0.997168 -0.00279556 0)
(0.99698 0.00106256 0)
(0.998058 0.00239213 0)
(0.999071 0.00428726 0)
(1.00411 0.001913 0)
(1.00323 -0.00154068 0)
(0.999714 0.000595867 0)
(1.00101 -0.00186164 0)
(0.999981 -0.00136716 0)
(0.99764 -0.000382177 0)
(0.997485 -0.000428147 0)
(0.997215 0.00148641 0)
(0.996889 0.00289036 0)
(0.997262 0.00330643 0)
(0.997474 0.00436183 0)
(0.997384 0.00556893 0)
(0.997445 0.00637604 0)
(0.998735 0.000459872 0)
(1.00224 0.00253464 0)
(1.00325 -0.00370391 0)
(0.997315 -0.00261715 0)
(0.99714 0.00101298 0)
(0.998166 0.00229319 0)
(0.999054 0.00407021 0)
(1.0039 0.00188853 0)
(1.00319 -0.00145019 0)
(0.999696 0.000590268 0)
(1.00092 -0.00163532 0)
(1.00007 -0.00139015 0)
(0.997705 -0.000175725 0)
(0.997613 -0.000251566 0)
(0.997464 0.00145697 0)
(0.997053 0.00300212 0)
(0.997409 0.00339565 0)
(0.997707 0.00431054 0)
(0.997616 0.00557387 0)
(0.997657 0.00643063 0)
(0.998811 0.000429863 0)
(1.00213 0.00241544 0)
(1.00313 -0.00354703 0)
(0.997463 -0.00243288 0)
(0.9973 0.000959154 0)
(0.998274 0.00219799 0)
(0.999038 0.0038622 0)
(1.00368 0.00184865 0)
(1.00314 -0.00134914 0)
(0.999685 0.000574513 0)
(1.00083 -0.00141018 0)
(1.00016 -0.00139328 0)
(0.997788 1.19436e-05 0)
(0.997733 -4.80741e-05 0)
(0.997719 0.00143049 0)
(0.997235 0.00309702 0)
(0.997548 0.00350726 0)
(0.997942 0.00425897 0)
(0.997873 0.00551203 0)
(0.997861 0.00648067 0)
(0.998887 0.000396779 0)
(1.00202 0.00230484 0)
(1.00301 -0.00340131 0)
(0.997609 -0.00224534 0)
(0.997458 0.000906564 0)
(0.998384 0.00209905 0)
(0.999025 0.00366613 0)
(1.00347 0.00179584 0)
(1.00309 -0.00124362 0)
(0.999682 0.000556968 0)
(1.00074 -0.00119188 0)
(1.00026 -0.00137953 0)
(0.99789 0.000180998 0)
(0.997845 0.000179696 0)
(0.997979 0.00140978 0)
(0.997439 0.00316477 0)
(0.997682 0.00363451 0)
(0.998169 0.00422633 0)
(0.998153 0.00540367 0)
(0.998077 0.0064773 0)
(0.998963 0.00036118 0)
(1.00191 0.00220107 0)
(1.00289 -0.0032667 0)
(0.997756 -0.00205461 0)
(0.997614 0.000859164 0)
(0.998496 0.00199448 0)
(0.999014 0.0034895 0)
(1.00327 0.00173415 0)
(1.00305 -0.00113742 0)
(0.999686 0.000548078 0)
(1.00064 -0.000984702 0)
(1.00036 -0.00134357 0)
(0.998014 0.000337061 0)
(0.99795 0.000427209 0)
(0.998238 0.00139837 0)
(0.997667 0.00319675 0)
(0.997816 0.00376659 0)
(0.998382 0.00422336 0)
(0.998447 0.00528356 0)
(0.998319 0.00640312 0)
(0.999038 0.000323128 0)
(1.0018 0.00210626 0)
(1.00278 -0.0031445 0)
(0.997902 -0.00186596 0)
(0.997766 0.000820156 0)
(0.998609 0.00187868 0)
(0.999006 0.00333415 0)
(1.00306 0.00166151 0)
(1.00301 -0.00103957 0)
(0.999697 0.000551884 0)
(1.00055 -0.000779499 0)
(1.00046 -0.00128689 0)
(0.998159 0.000481575 0)
(0.998049 0.000690281 0)
(0.998491 0.00140048 0)
(0.997919 0.00318954 0)
(0.997956 0.00388903 0)
(0.998579 0.00423942 0)
(0.998744 0.00517238 0)
(0.99859 0.00627192 0)
(0.999112 0.000281763 0)
(1.00169 0.00202119 0)
(1.00267 -0.00303078 0)
(0.998049 -0.00168813 0)
(0.997912 0.000797887 0)
(0.998722 0.00174824 0)
(0.999001 0.00319594 0)
(1.00286 0.00158541 0)
(1.00297 -0.000956467 0)
(0.999719 0.000568364 0)
(1.00045 -0.00056695 0)
(1.00057 -0.0012181 0)
(0.998328 0.000610583 0)
(0.998143 0.000964858 0)
(0.998731 0.00142012 0)
(0.998195 0.00314249 0)
(0.998108 0.00399677 0)
(0.998761 0.00426727 0)
(0.999034 0.00507248 0)
(0.998887 0.00611484 0)
(0.999184 0.000238329 0)
(1.00157 0.00194336 0)
(1.00256 -0.00292123 0)
(0.998197 -0.00152665 0)
(0.998053 0.00080016 0)
(0.998836 0.00160641 0)
(0.999 0.00307141 0)
(1.00266 0.00152299 0)
(1.00293 -0.000893992 0)
(0.999752 0.000594831 0)
(1.00035 -0.000343838 0)
(1.00068 -0.00113711 0)
(0.998524 0.00071507 0)
(0.998235 0.00124617 0)
(0.998954 0.00146765 0)
(0.998493 0.00305915 0)
(0.998278 0.00408315 0)
(0.998929 0.00430955 0)
(0.999315 0.0049741 0)
(0.9992 0.00594905 0)
(0.999255 0.000192863 0)
(1.00146 0.0018737 0)
(1.00245 -0.00281413 0)
(0.998347 -0.00139109 0)
(0.998187 0.000829209 0)
(0.998949 0.0014524 0)
(0.999004 0.00295344 0)
(1.00247 0.00147974 0)
(1.0029 -0.000854645 0)
(0.999799 0.000624605 0)
(1.00025 -0.000108354 0)
(1.00078 -0.00103333 0)
(0.998746 0.000787144 0)
(0.998328 0.00152151 0)
(0.999151 0.00155255 0)
(0.998808 0.00295025 0)
(0.998473 0.00413359 0)
(0.999083 0.00437051 0)
(0.99958 0.00487775 0)
(0.999523 0.00577624 0)
(0.999325 0.00014579 0)
(1.00135 0.00180876 0)
(1.00234 -0.0027038 0)
(0.998499 -0.00128487 0)
(0.998314 0.000886587 0)
(0.99906 0.00129515 0)
(0.999015 0.00283202 0)
(1.00227 0.00146742 0)
(1.00287 -0.000826376 0)
(0.999864 0.000645788 0)
(1.00015 0.00014312 0)
(1.00088 -0.000903841 0)
(0.998995 0.000816567 0)
(0.998431 0.00177235 0)
(0.999319 0.00167901 0)
(0.999133 0.00283383 0)
(0.998701 0.0041354 0)
(0.999228 0.00444547 0)
(0.999823 0.00479913 0)
(0.999849 0.00559545 0)
(0.999393 9.8464e-05 0)
(1.00123 0.00174637 0)
(1.00223 -0.00258709 0)
(0.998655 -0.00121047 0)
(0.998434 0.000967597 0)
(0.999166 0.00114414 0)
(0.999034 0.00269442 0)
(1.00207 0.00149357 0)
(1.00284 -0.000795914 0)
(0.999949 0.000647436 0)
(1.00006 0.000402067 0)
(1.00096 -0.000745379 0)
(0.999266 0.000807671 0)
(0.998553 0.00198331 0)
(0.999459 0.00184701 0)
(0.999454 0.00273019 0)
(0.998963 0.00408372 0)
(0.999374 0.00451562 0)
(1.00004 0.00475047 0)
(1.00017 0.00541193 0)
(0.999459 5.18199e-05 0)
(1.00112 0.00168345 0)
(1.00212 -0.00245749 0)
(0.998814 -0.00117334 0)
(0.998547 0.00105934 0)
(0.999263 0.00101112 0)
(0.999064 0.00253462 0)
(1.00187 0.00154579 0)
(1.00281 -0.000748367 0)
(1.00005 0.000621185 0)
(0.999973 0.000652696 0)
(1.00102 -0.000555253 0)
(0.999553 0.000776819 0)
(0.998702 0.00214079 0)
(0.999573 0.00204222 0)
(0.99976 0.00265815 0)
(0.999258 0.00398961 0)
(0.999531 0.00456491 0)
(1.00023 0.00473619 0)
(1.00047 0.00524665 0)
(0.999522 6.66495e-06 0)
(1.001 0.00161899 0)
(1.002 -0.00231198 0)
(0.998978 -0.0011669 0)
(0.998656 0.00115078 0)
(0.99935 0.000910125 0)
(0.999105 0.00234857 0)
(1.00168 0.00161636 0)
(1.00276 -0.00066819 0)
(1.00018 0.00056754 0)
(0.999903 0.000887673 0)
(1.00105 -0.000325791 0)
(0.999848 0.000743206 0)
(0.998883 0.00223364 0)
(0.999671 0.00223547 0)
(1.00004 0.00262261 0)
(0.999579 0.00386719 0)
(0.99971 0.00457892 0)
(1.00039 0.00474236 0)
(1.00074 0.00511602 0)
(0.999582 -3.6073e-05 0)
(1.00089 0.0015533 0)
(1.00188 -0.00214971 0)
(0.999143 -0.00118773 0)
(0.998762 0.0012271 0)
(0.999421 0.000853765 0)
(0.999157 0.00214386 0)
(1.00149 0.00169174 0)
(1.00271 -0.000540063 0)
(1.00033 0.000496261 0)
(0.999857 0.0010861 0)
(1.00106 -6.81754e-05 0)
(1.00014 0.000727969 0)
(0.999096 0.00227425 0)
(0.999761 0.00241302 0)
(1.00029 0.00262206 0)
(0.999916 0.00373182 0)
(0.999917 0.00455223 0)
(1.00054 0.00474856 0)
(1.00098 0.00502372 0)
(0.999638 -7.45684e-05 0)
(1.00078 0.00148317 0)
(1.00175 -0.00197047 0)
(0.999309 -0.00122929 0)
(0.998869 0.00127449 0)
(0.999476 0.000847929 0)
(0.999217 0.00193174 0)
(1.00132 0.00175111 0)
(1.00263 -0.000366513 0)
(1.00048 0.000426318 0)
(0.999836 0.00123074 0)
(1.00105 0.000211611 0)
(1.00041 0.000743778 0)
(0.999337 0.00227868 0)
(0.999851 0.0025697 0)
(1.00051 0.00265023 0)
(1.00026 0.00359491 0)
(1.00015 0.00449014 0)
(1.00069 0.00474159 0)
(1.00117 0.00495929 0)
(0.999691 -0.000107359 0)
(1.00067 0.0014046 0)
(1.00161 -0.00177597 0)
(0.999473 -0.00128269 0)
(0.998981 0.00128221 0)
(0.999514 0.000886606 0)
(0.999279 0.00172507 0)
(1.00117 0.00178552 0)
(1.00254 -0.000162053 0)
(1.00063 0.000376975 0)
(0.999846 0.00131921 0)
(1.00103 0.00049755 0)
(1.00067 0.000800083 0)
(0.999602 0.0022576 0)
(0.999948 0.00269928 0)
(1.0007 0.00270138 0)
(1.0006 0.00345984 0)
(1.00042 0.0043953 0)
(1.00084 0.00471585 0)
(1.00134 0.00490032 0)
(0.99974 -0.00013427 0)
(1.00057 0.00131707 0)
(1.00146 -0.00156746 0)
(0.99963 -0.00133744 0)
(0.999102 0.0012452 0)
(0.999537 0.000963172 0)
(0.999339 0.00153939 0)
(1.00104 0.00178419 0)
(1.00243 5.6247e-05 0)
(1.00077 0.000361261 0)
(0.999885 0.00135967 0)
(1.001 0.000756253 0)
(1.00089 0.000891033 0)
(0.999881 0.00222667 0)
(1.00006 0.00279926 0)
(1.00085 0.00277645 0)
(1.00092 0.00333772 0)
(1.00071 0.00426829 0)
(1.00101 0.00467388 0)
(1.00149 0.00483526 0)
(0.999785 -0.000152508 0)
(1.00048 0.00121575 0)
(1.0013 -0.00134624 0)
(0.999775 -0.00138257 0)
(0.999233 0.00116043 0)
(0.999548 0.00106213 0)
(0.99939 0.00139126 0)
(1.00092 0.00174338 0)
(1.00232 0.000276755 0)
(1.0009 0.000391898 0)
(0.999947 0.00137495 0)
(1.00098 0.000977222 0)
(1.00109 0.000999955 0)
(1.00017 0.0021963 0)
(1.00018 0.00286632 0)
(1.00097 0.00286495 0)
(1.00121 0.00324295 0)
(1.00102 0.00411127 0)
(1.00119 0.0046111 0)
(1.00162 0.00476549 0)
(0.999825 -0.000162114 0)
(1.00039 0.00109916 0)
(1.00114 -0.00111711 0)
(0.999904 -0.00140628 0)
(0.999378 0.00102943 0)
(0.999553 0.00116418 0)
(0.999428 0.00129565 0)
(1.00083 0.00167536 0)
(1.0022 0.00048925 0)
(1.00101 0.000469919 0)
(1.00002 0.00138344 0)
(1.00096 0.00115731 0)
(1.00127 0.00111331 0)
(1.00045 0.00216848 0)
(1.00033 0.00290511 0)
(1.00106 0.00295425 0)
(1.00147 0.00318618 0)
(1.00134 0.00394005 0)
(1.00139 0.00451797 0)
(1.00175 0.00469326 0)
(0.999861 -0.000163003 0)
(1.00031 0.000968443 0)
(1.00098 -0.000887173 0)
(1.00001 -0.00139616 0)
(0.999534 0.000857027 0)
(0.999559 0.00125212 0)
(0.999449 0.00125743 0)
(1.00076 0.0015885 0)
(1.0021 0.000671054 0)
(1.0011 0.000585749 0)
(1.00011 0.0013957 0)
(1.00094 0.00130579 0)
(1.00142 0.00122179 0)
(1.00074 0.00213757 0)
(1.00049 0.00291566 0)
(1.00115 0.00303226 0)
(1.00168 0.00316305 0)
(1.00165 0.0037755 0)
(1.00162 0.00439145 0)
(1.00189 0.0046156 0)
(0.999892 -0.0001539 0)
(1.00025 0.00082507 0)
(1.00081 -0.00066375 0)
(1.0001 -0.00134421 0)
(0.999701 0.000655919 0)
(0.999575 0.00130813 0)
(0.999453 0.00127313 0)
(1.00069 0.00150237 0)
(1.002 0.000807034 0)
(1.00117 0.00071634 0)
(1.00019 0.00142994 0)
(1.00094 0.00143235 0)
(1.00155 0.00132467 0)
(1.00102 0.002106 0)
(1.00068 0.00290169 0)
(1.00122 0.00309234 0)
(1.00185 0.00316342 0)
(1.00195 0.00363178 0)
(1.00187 0.00423842 0)
(1.00203 0.00452274 0)
(0.999918 -0.000136968 0)
(1.0002 0.000673504 0)
(1.00066 -0.000456262 0)
(1.00016 -0.00124831 0)
(0.999872 0.000442687 0)
(0.999609 0.00132145 0)
(0.999444 0.00133057 0)
(1.00063 0.00143937 0)
(1.00192 0.000896007 0)
(1.00123 0.000840705 0)
(1.00028 0.00148567 0)
(1.00093 0.00154911 0)
(1.00165 0.00142396 0)
(1.00128 0.00207351 0)
(1.00088 0.00286651 0)
(1.00131 0.00312912 0)
(1.00198 0.00317416 0)
(1.00221 0.00351146 0)
(1.00214 0.00407205 0)
(1.00218 0.0044095 0)
(0.99994 -0.000113531 0)
(1.00016 0.000522714 0)
(1.00051 -0.000277678 0)
(1.00019 -0.00110578 0)
(1.00004 0.00023141 0)
(0.999669 0.00127619 0)
(0.999429 0.00141225 0)
(1.00056 0.00141515 0)
(1.00185 0.000951864 0)
(1.0013 0.000951346 0)
(1.00037 0.00154792 0)
(1.00093 0.00166691 0)
(1.00174 0.00152666 0)
(1.00153 0.0020434 0)
(1.0011 0.00281012 0)
(1.0014 0.00314019 0)
(1.00208 0.00318637 0)
(1.00244 0.0034139 0)
(1.0024 0.0039039 0)
(1.00236 0.00427955 0)
(0.999959 -8.58867e-05 0)
(1.00013 0.000381186 0)
(1.00039 -0.000134732 0)
(1.00019 -0.000927878 0)
(1.0002 5.14344e-05 0)
(0.999757 0.00117017 0)
(0.999418 0.00149114 0)
(1.00049 0.00143516 0)
(1.00178 0.000994869 0)
(1.00137 0.00102856 0)
(1.00046 0.00161043 0)
(1.00093 0.00177921 0)
(1.0018 0.00163836 0)
(1.00176 0.00202854 0)
(1.00133 0.00274019 0)
(1.0015 0.00312459 0)
(1.00216 0.00319246 0)
(1.00263 0.00333693 0)
(1.00266 0.00373757 0)
(1.00255 0.0041325 0)
(0.999974 -5.70267e-05 0)
(1.00011 0.000254973 0)
(1.00028 -2.98461e-05 0)
(1.00018 -0.000731418 0)
(1.00035 -8.55107e-05 0)
(0.999873 0.00101907 0)
(0.999424 0.00154788 0)
(1.0004 0.00149512 0)
(1.00172 0.00104335 0)
(1.00144 0.0010738 0)
(1.00056 0.00165871 0)
(1.00093 0.00188169 0)
(1.00184 0.00175037 0)
(1.00196 0.0020323 0)
(1.00156 0.0026707 0)
(1.00163 0.00308615 0)
(1.00223 0.00318451 0)
(1.00278 0.00327626 0)
(1.00291 0.00358029 0)
(1.00276 0.00396619 0)
(0.999987 -2.86062e-05 0)
(1.0001 0.000147575 0)
(1.0002 3.6149e-05 0)
(1.00014 -0.000526055 0)
(1.00046 -0.000168862 0)
(1.00001 0.000844553 0)
(0.999457 0.00156094 0)
(1.00032 0.00158395 0)
(1.00164 0.00111013 0)
(1.00151 0.00111231 0)
(1.00068 0.00167894 0)
(1.00095 0.00196786 0)
(1.00186 0.00185786 0)
(1.00213 0.00204711 0)
(1.00179 0.0026093 0)
(1.00177 0.00303646 0)
(1.0023 0.00316095 0)
(1.0029 0.0032227 0)
(1.00312 0.0034406 0)
(1.00299 0.00378243 0)
(0.999997 -2.55107e-06 0)
(1.0001 6.20675e-05 0)
(1.00014 6.96862e-05 0)
(1.0001 -0.0003311 0)
(1.00055 -0.00018531 0)
(1.00016 0.000664405 0)
(0.999524 0.00151722 0)
(1.00024 0.00167221 0)
(1.00156 0.00120694 0)
(1.00158 0.00114884 0)
(1.00081 0.00168506 0)
(1.00098 0.0020245 0)
(1.00187 0.00195745 0)
(1.00228 0.00206933 0)
(1.00201 0.00255179 0)
(1.00191 0.00298505 0)
(1.00236 0.00313014 0)
(1.00299 0.0031693 0)
(1.0033 0.00332118 0)
(1.00321 0.00359731 0)
(1.00001 1.9512e-05 0)
(1.00009 1.96395e-07 0)
(1.0001 7.59733e-05 0)
(1.00006 -0.000155321 0)
(1.00061 -0.000149499 0)
(1.00032 0.000502854 0)
(0.999628 0.00142607 0)
(1.00018 0.00173792 0)
(1.00146 0.00132624 0)
(1.00164 0.00119578 0)
(1.00094 0.00168216 0)
(1.00103 0.00205595 0)
(1.00188 0.00203277 0)
(1.0024 0.00209621 0)
(1.00222 0.0024937 0)
(1.00207 0.00292701 0)
(1.00242 0.00310092 0)
(1.00305 0.00311954 0)
(1.00344 0.00321618 0)
(1.00342 0.0034287 0)
(1.00001 3.71308e-05 0)
(1.00009 -3.95435e-05 0)
(1.00009 6.38034e-05 0)
(1.00002 4.08228e-07 0)
(1.00064 -7.76345e-05 0)
(1.00046 0.000385153 0)
(0.999763 0.00130446 0)
(1.00016 0.00176716 0)
(1.00137 0.00144445 0)
(1.00167 0.00127153 0)
(1.00108 0.00167461 0)
(1.00109 0.002072 0)
(1.00189 0.00208608 0)
(1.00249 0.00211739 0)
(1.00242 0.00243981 0)
(1.00225 0.0028549 0)
(1.00249 0.00306619 0)
(1.00309 0.00307894 0)
(1.00355 0.00311768 0)
(1.0036 0.00327614 0)
(1.00002 4.89177e-05 0)
(1.00009 -5.40003e-05 0)
(1.00009 4.28853e-05 0)
(0.999999 0.00012266 0)
(1.00065 2.57082e-05 0)
(1.00059 0.000315645 0)
(0.999921 0.00117398 0)
(1.00016 0.00174666 0)
(1.00128 0.00154505 0)
(1.00169 0.00135977 0)
(1.00121 0.00168196 0)
(1.00117 0.00206918 0)
(1.0019 0.00212613 0)
(1.00257 0.00212855 0)
(1.00261 0.00238532 0)
(1.00243 0.00277441 0)
(1.00258 0.00301598 0)
(1.00311 0.00304915 0)
(1.00362 0.00303665 0)
(1.00374 0.00313733 0)
(1.00002 5.6306e-05 0)
(1.00009 -4.93356e-05 0)
(1.0001 2.26235e-05 0)
(0.999987 0.000204338 0)
(1.00064 0.000141419 0)
(1.00069 0.000300332 0)
(1.00009 0.00105198 0)
(1.00021 0.00168731 0)
(1.00121 0.00161473 0)
(1.0017 0.00144188 0)
(1.00133 0.00170585 0)
(1.00126 0.00206244 0)
(1.00191 0.00214558 0)
(1.00263 0.00213764 0)
(1.00277 0.00232235 0)
(1.00262 0.00268152 0)
(1.00268 0.00294498 0)
(1.00313 0.00301343 0)
(1.00365 0.00297794 0)
(1.00385 0.00301393 0)
(1.00003 6.05241e-05 0)
(1.00008 -3.28052e-05 0)
(1.00012 1.12871e-05 0)
(0.999989 0.000259043 0)
(1.00063 0.000247257 0)
(1.00077 0.000329804 0)
(1.00025 0.000954973 0)
(1.00028 0.00160945 0)
(1.00116 0.0016432 0)
(1.0017 0.00151066 0)
(1.00143 0.00172809 0)
(1.00134 0.00206757 0)
(1.00193 0.00215161 0)
(1.00266 0.00214189 0)
(1.00291 0.00226592 0)
(1.00281 0.00257551 0)
(1.00281 0.00285511 0)
(1.00316 0.00295962 0)
(1.00364 0.00293136 0)
(1.0039 0.00291399 0)
(1.00004 6.35574e-05 0)
(1.00007 -1.16504e-05 0)
(1.00015 1.34464e-05 0)
(1 0.000295278 0)
(1.00061 0.000340884 0)
(1.00083 0.000381245 0)
(1.0004 0.000896996 0)
(1.00037 0.00152866 0)
(1.00113 0.00163927 0)
(1.0017 0.00155447 0)
(1.00153 0.00174047 0)
(1.00142 0.0020696 0)
(1.00194 0.00216289 0)
(1.00268 0.00213338 0)
(1.00303 0.00221506 0)
(1.00299 0.00246381 0)
(1.00295 0.00274168 0)
(1.0032 0.00288225 0)
(1.00363 0.00287874 0)
(1.00392 0.00283679 0)
(1.00004 6.551e-05 0)
(1.00006 1.36159e-05 0)
(1.00017 2.86756e-05 0)
(1.00003 0.00032153 0)
(1.0006 0.000417219 0)
(1.00087 0.000443903 0)
(1.00054 0.000871441 0)
(1.00046 0.00145564 0)
(1.00111 0.00162043 0)
(1.0017 0.00156867 0)
(1.00163 0.00174149 0)
(1.00151 0.00205793 0)
(1.00194 0.00217863 0)
(1.00268 0.00213004 0)
(1.00311 0.002163 0)
(1.00316 0.00235767 0)
(1.0031 0.00261168 0)
(1.00326 0.00277883 0)
(1.00362 0.00280629 0)
(1.0039 0.00276441 0)
(1.00005 6.74242e-05 0)
(1.00005 4.10972e-05 0)
(1.0002 5.32899e-05 0)