/*--------------------------------*- C++ -*----------------------------------*\
| =========                 |                                                 |
| \\      /  F ield         | OpenFOAM: The Open Source CFD Toolbox           |
|  \\    /   O peration     | Version:  2106                                  |
|   \\  /    A nd           | Website:  www.openfoam.com                      |
|    \\/     M anipulation  |                                                 |
\*---------------------------------------------------------------------------*/
FoamFile
{
    version     2.0;
    format      ascii;
    arch        "LSB;label=32;scalar=64";
    class       surfaceScalarField;
    location    "0.08";
    object      phi;
}
// * * * * * * * * * * * * * * * * * * * * * * * * * * * * * * * * * * * * * //

dimensions      [0 3 -1 0 0 0 0];

oriented        oriented;

internalField   nonuniform List<scalar> 
19000
(
1.17884e-06
-3.12965e-07
1.1542e-06
8.11344e-07
1.18878e-06
-1.24976e-06
1.15628e-06
1.19133e-06
1.18289e-06
-6.25602e-07
1.17637e-06
-4.87881e-07
1.17106e-06
4.78204e-07
1.16273e-06
1.72873e-07
1.17915e-06
-4.22292e-07
1.17017e-06
-3.71524e-07
1.17307e-06
2.00457e-07
1.15869e-06
2.21958e-07
1.16835e-06
1.11851e-07
1.15292e-06
-2.54857e-07
1.16528e-06
-2.39384e-07
1.16495e-06
-7.34472e-08
1.16206e-06
1.02149e-07
1.12959e-06
-1.0167e-07
1.14978e-06
2.64833e-07
1.41131e-07
1.10959e-06
1.23484e-06
-3.23545e-07
1.21171e-06
8.34471e-07
1.24723e-06
-1.28528e-06
1.22058e-06
1.21798e-06
1.2459e-06
-6.50926e-07
1.23451e-06
-4.76489e-07
1.22581e-06
4.86904e-07
1.22365e-06
1.75038e-07
1.23596e-06
-4.34607e-07
1.22824e-06
-3.63801e-07
1.22568e-06
2.03012e-07
1.22196e-06
2.25683e-07
1.22163e-06
1.12178e-07
1.2159e-06
-2.49125e-07
1.21589e-06
-2.39374e-07
1.22885e-06
-8.64141e-08
1.21092e-06
1.20084e-07
1.19713e-06
-8.7878e-08
1.18879e-06
2.73173e-07
1.32855e-07
1.19706e-06
1.29193e-06
-3.32694e-07
1.27411e-06
8.52293e-07
1.30408e-06
-1.31524e-06
1.29046e-06
1.23159e-06
1.30618e-06
-6.66643e-07
1.29819e-06
-4.68496e-07
1.28687e-06
4.98218e-07
1.28929e-06
1.72626e-07
1.29298e-06
-4.38306e-07
1.28972e-06
-3.60534e-07
1.28314e-06
2.09585e-07
1.28742e-06
2.2141e-07
1.28177e-06
1.17826e-07
1.28102e-06
-2.48373e-07
1.27274e-06
-2.31093e-07
1.28579e-06
-9.94688e-08
1.27488e-06
1.3099e-07
1.2604e-06
-7.3392e-08
1.25989e-06
2.73685e-07
1.35707e-07
1.25703e-06
1.35112e-06
-3.39714e-07
1.3397e-06
8.63714e-07
1.36099e-06
-1.33653e-06
1.3601e-06
1.23249e-06
1.36382e-06
-6.70367e-07
1.36144e-06
-4.66113e-07
1.35318e-06
5.06477e-07
1.35593e-06
1.69881e-07
1.35055e-06
-4.32935e-07
1.35039e-06
-3.6037e-07
1.34682e-06
2.13156e-07
1.35257e-06
2.15663e-07
1.34719e-06
1.23206e-07
1.34443e-06
-2.45617e-07
1.33503e-06
-2.21697e-07
1.34235e-06
-1.06781e-07
1.34111e-06
1.32228e-07
1.32683e-06
-5.9117e-08
1.3288e-06
2.71723e-07
1.42166e-07
1.32234e-06
1.413e-06
-3.4436e-07
1.40784e-06
8.68878e-07
1.41898e-06
-1.34768e-06
1.42789e-06
1.22358e-06
1.42147e-06
-6.63952e-07
1.42265e-06
-4.67293e-07
1.42153e-06
5.07596e-07
1.42229e-06
1.6912e-07
1.41059e-06
-4.21229e-07
1.41086e-06
-3.60648e-07
1.41333e-06
2.10687e-07
1.41864e-06
2.10355e-07
1.41459e-06
1.2726e-07
1.40861e-06
-2.3964e-07
1.39918e-06
-2.12261e-07
1.40262e-06
-1.10226e-07
1.40574e-06
1.29107e-07
1.39447e-06
-4.78443e-08
1.39716e-06
2.69028e-07
1.51081e-07
1.38825e-06
1.47816e-06
-3.46844e-07
1.4782e-06
8.68838e-07
1.47962e-06
-1.3491e-06
1.49472e-06
1.20848e-06
1.48237e-06
-6.51603e-07
1.48352e-06
-4.68437e-07
1.48968e-06
5.01438e-07
1.48939e-06
1.69403e-07
1.47454e-06
-4.06371e-07
1.47344e-06
-3.59554e-07
1.48021e-06
2.03922e-07
1.48591e-06
2.04649e-07
1.48304e-06
1.3013e-07
1.47513e-06
-2.3173e-07
1.46523e-06
-2.02363e-07
1.46625e-06
-1.11242e-07
1.47092e-06
1.24433e-07
1.46187e-06
-3.87948e-08
1.46687e-06
2.64034e-07
1.62433e-07
1.45551e-06
1.54703e-06
-3.47655e-07
1.55088e-06
8.6499e-07
1.54434e-06
-1.34256e-06
1.56285e-06
1.18997e-06
1.54836e-06
-6.37115e-07
1.54697e-06
-4.67046e-07
1.55787e-06
4.90541e-07
1.55868e-06
1.68592e-07
1.54292e-06
-3.90608e-07
1.53967e-06
-3.56304e-07
1.54784e-06
1.95747e-07
1.55462e-06
1.97869e-07
1.55326e-06
1.31492e-07
1.5447e-06
-2.23169e-07
1.53441e-06
-1.9208e-07
1.5333e-06
-1.10125e-07
1.53847e-06
1.19256e-07
1.52999e-06
-3.03064e-08
1.53779e-06
2.56229e-07
1.75092e-07
1.52513e-06
1.6198e-06
-3.47327e-07
1.62621e-06
8.58584e-07
1.61391e-06
-1.33027e-06
1.63431e-06
1.16957e-06
1.61965e-06
-6.22449e-07
1.61518e-06
-4.62584e-07
1.62809e-06
4.77636e-07
1.63121e-06
1.65467e-07
1.61568e-06
-3.75071e-07
1.61024e-06
-3.50866e-07
1.61804e-06
1.87943e-07
1.62585e-06
1.90061e-07
1.62624e-06
1.31106e-07
1.61769e-06
-2.14619e-07
1.60737e-06
-1.81768e-07
1.60425e-06
-1.06997e-07
1.60959e-06
1.13914e-07
1.60044e-06
-2.1157e-08
1.61058e-06
2.4609e-07
1.87687e-07
1.59798e-06
1.69653e-06
-3.46281e-07
1.70462e-06
8.50496e-07
1.68847e-06
-1.31412e-06
1.71019e-06
1.14785e-06
1.6957e-06
-6.07961e-07
1.68897e-06
-4.55849e-07
1.70224e-06
4.64363e-07
1.70761e-06
1.60093e-07
1.69259e-06
-3.60051e-07
1.68541e-06
-3.43684e-07
1.69235e-06
1.81002e-07
1.70082e-06
1.81592e-07
1.70276e-06
1.29165e-07
1.6943e-06
-2.06157e-07
1.68432e-06
-1.71789e-07
1.6794e-06
-1.02083e-07
1.68498e-06
1.08334e-07
1.67462e-06
-1.07924e-08
1.68625e-06
2.34458e-07
1.99123e-07
1.67482e-06
1.77722e-06
-3.44776e-07
1.78648e-06
8.41231e-07
1.76778e-06
-1.29541e-06
1.79074e-06
1.12489e-06
1.77605e-06
-5.93275e-07
1.76817e-06
-4.4797e-07
1.78118e-06
4.51352e-07
1.78815e-06
1.53127e-07
1.77351e-06
-3.45405e-07
1.76517e-06
-3.35345e-07
1.77145e-06
1.74721e-07
1.7802e-06
1.72837e-07
1.78329e-06
1.2608e-07
1.77466e-06
-1.97528e-07
1.76529e-06
-1.62421e-07
1.75885e-06
-9.56454e-08
1.76487e-06
1.02316e-07
1.75333e-06
7.52923e-10
1.76554e-06
2.22247e-07
2.08659e-07
1.756e-06
1.86191e-06
-3.42937e-07
1.87212e-06
8.31023e-07
1.85158e-06
-1.27487e-06
1.87584e-06
1.10062e-06
1.8605e-06
-5.77929e-07
1.85235e-06
-4.39827e-07
1.86496e-06
4.38745e-07
1.87291e-06
1.45183e-07
1.8584e-06
-3.30903e-07
1.84937e-06
-3.26316e-07
1.85536e-06
1.68736e-07
1.86412e-06
1.64079e-07
1.868e-06
1.22196e-07
1.8589e-06
-1.88429e-07
1.85032e-06
-1.53842e-07
1.84259e-06
-8.79126e-08
1.84913e-06
9.5772e-08
1.83681e-06
1.3078e-08
1.84875e-06
2.1031e-07
2.15829e-07
1.84158e-06
1.95071e-06
-3.40812e-07
1.96178e-06
8.19953e-07
1.93973e-06
-1.25282e-06
1.96537e-06
1.07497e-06
1.94907e-06
-5.61621e-07
1.94117e-06
-4.31929e-07
1.95336e-06
4.26554e-07
1.96191e-06
1.36627e-07
1.9474e-06
-3.16391e-07
1.93794e-06
-3.16859e-07
1.94391e-06
1.62767e-07
1.95248e-06
1.55515e-07
1.95698e-06
1.17689e-07
1.94719e-06
-1.78636e-07
1.93949e-06
-1.46141e-07
1.93066e-06
-7.90829e-08
1.93761e-06
8.88248e-08
1.92507e-06
2.56165e-08
1.93601e-06
1.99372e-07
2.20355e-07
1.93148e-06
2.04378e-06
-3.38407e-07
2.0557e-06
8.08035e-07
2.03225e-06
-1.22937e-06
2.05932e-06
1.04791e-06
2.0419e-06
-5.44199e-07
2.03449e-06
-4.24521e-07
2.04625e-06
4.14792e-07
2.05525e-06
1.27626e-07
2.04067e-06
-3.01809e-07
2.03089e-06
-3.07077e-07
2.03701e-06
1.56645e-07
2.04523e-06
1.47292e-07
2.05032e-06
1.12604e-07
2.03972e-06
-1.68034e-07
2.0329e-06
-1.3932e-07
2.0232e-06
-6.93816e-08
2.03024e-06
8.17833e-08
2.01808e-06
3.77735e-08
2.02751e-06
1.89944e-07
2.22165e-07
2.0257e-06
2.14131e-06
-3.35715e-07
2.15409e-06
7.95253e-07
2.12927e-06
-1.20455e-06
2.15779e-06
1.01939e-06
2.13919e-06
-5.25599e-07
2.13238e-06
-4.17713e-07
2.14368e-06
4.03489e-07
2.15306e-06
1.18246e-07
2.13842e-06
-2.87172e-07
2.12833e-06
-2.9698e-07
2.13471e-06
1.50267e-07
2.14246e-06
1.39533e-07
2.14814e-06
1.06925e-07
2.1367e-06
-1.56595e-07
2.13068e-06
-1.333e-07
2.12039e-06
-5.90866e-08
2.12711e-06
7.50644e-08
2.11588e-06
4.89984e-08
2.12358e-06
1.82251e-07
2.21452e-07
2.12429e-06
2.2435e-06
-3.32723e-07
2.25716e-06
7.81587e-07
2.23097e-06
-1.17835e-06
2.26094e-06
9.89419e-07
2.24115e-06
-5.05805e-07
2.23499e-06
-4.11555e-07
2.2458e-06
3.92675e-07
2.25552e-06
1.08531e-07
2.24088e-06
-2.72534e-07
2.23043e-06
-2.86532e-07
2.23715e-06
1.43548e-07
2.24433e-06
1.32353e-07
2.25062e-06
1.00633e-07
2.2384e-06
-1.4437e-07
2.23301e-06
-1.27917e-07
2.22248e-06
-4.85486e-08
2.22841e-06
6.91343e-08
2.21857e-06
5.88333e-08
2.22456e-06
1.76259e-07
2.18644e-07
2.22737e-06
2.35057e-06
-3.29418e-07
2.36514e-06
7.67016e-07
2.33756e-06
-1.15076e-06
2.36899e-06
9.57985e-07
2.348e-06
-4.84819e-07
2.34252e-06
-4.06071e-07
2.35282e-06
3.8237e-07
2.36282e-06
9.853e-08
2.34827e-06
-2.57977e-07
2.33741e-06
-2.75672e-07
2.34455e-06
1.36411e-07
2.35104e-06
1.25853e-07
2.35794e-06
9.37351e-08
2.34505e-06
-1.31482e-07
2.34007e-06
-1.22929e-07
2.32968e-06
-3.81595e-08
2.33437e-06
6.4443e-08
2.32625e-06
6.695e-08
2.33076e-06
1.7175e-07
2.14289e-07
2.33511e-06
2.46276e-06
-3.25785e-07
2.47826e-06
7.5152e-07
2.44928e-06
-1.12178e-06
2.48216e-06
9.25103e-07
2.46e-06
-4.62657e-07
2.45519e-06
-4.01267e-07
2.46498e-06
3.72581e-07
2.4752e-06
8.83126e-08
2.46083e-06
-2.4361e-07
2.44949e-06
-2.64324e-07
2.45712e-06
1.28777e-07
2.46286e-06
1.20113e-07
2.4703e-06
8.62903e-08
2.45695e-06
-1.18127e-07
2.45205e-06
-1.18028e-07
2.44222e-06
-2.83307e-08
2.44529e-06
6.13755e-08
2.43905e-06
7.31906e-08
2.44244e-06
1.68355e-07
2.08987e-07
2.44774e-06
2.58032e-06
-3.21811e-07
2.59676e-06
7.35084e-07
2.56638e-06
-1.09141e-06
2.60069e-06
8.90796e-07
2.57738e-06
-4.39351e-07
2.57325e-06
-3.97135e-07
2.58254e-06
3.63291e-07
2.59288e-06
7.79738e-08
2.57883e-06
-2.29563e-07
2.56691e-06
-2.524e-07
2.5751e-06
1.20582e-07
2.58004e-06
1.15176e-07
2.58792e-06
7.84154e-08
2.57436e-06
-1.04569e-07
2.5692e-06
-1.12875e-07
2.5603e-06
-1.94272e-08
2.56157e-06
6.01089e-08
2.55709e-06
7.76675e-08
2.55985e-06
1.65593e-07
2.03285e-07
2.56555e-06
2.7035e-06
-3.17482e-07
2.72089e-06
7.17695e-07
2.68913e-06
-1.05965e-06
2.72482e-06
8.55098e-07
2.70042e-06
-4.14947e-07
2.69694e-06
-3.93652e-07
2.70576e-06
3.54466e-07
2.7161e-06
6.76357e-08
2.70252e-06
-2.15988e-07
2.68994e-06
-2.39814e-07
2.69874e-06
1.11784e-07
2.70288e-06
1.11031e-07
2.711e-06
7.02969e-08
2.69755e-06
-9.11225e-08
2.6918e-06
-1.07125e-07
2.68411e-06
-1.17394e-08
2.6837e-06
6.05221e-08
2.68056e-06
8.08107e-08
2.68321e-06
1.62945e-07
1.9759e-07
2.6889e-06
2.83257e-06
-3.12785e-07
2.85092e-06
6.99348e-07
2.81779e-06
-1.02652e-06
2.85483e-06
8.1806e-07
2.82939e-06
-3.89507e-07
2.82651e-06
-3.90772e-07
2.83493e-06
3.46044e-07
2.84512e-06
5.74475e-08
2.83218e-06
-2.03052e-07
2.81885e-06
-2.26483e-07
2.82826e-06
1.02376e-07
2.83168e-06
1.07611e-07
2.8398e-06
6.21804e-08
2.82681e-06
-7.81321e-08
2.82015e-06
-1.00466e-07
2.81384e-06
-5.4275e-09
2.81207e-06
6.22878e-08
2.80971e-06
8.3172e-08
2.81269e-06
1.5997e-07
1.92113e-07
2.81816e-06
2.96782e-06
-3.0771e-07
2.98713e-06
6.8004e-07
2.95266e-06
-9.92053e-07
2.99098e-06
7.79747e-07
2.96458e-06
-3.63111e-07
2.96224e-06
-3.88434e-07
2.97035e-06
3.37939e-07
2.98021e-06
4.75846e-08
2.96809e-06
-1.90932e-07
2.95395e-06
-2.12345e-07
2.96393e-06
9.24002e-08
2.96677e-06
1.04772e-07
2.97457e-06
5.43738e-08
2.96239e-06
-6.59505e-08
2.95459e-06
-9.26655e-08
2.94963e-06
-4.70106e-10
2.94699e-06
6.4934e-08
2.9449e-06
8.52556e-08
2.94845e-06
1.56422e-07
1.86864e-07
2.9537e-06
3.10954e-06
-3.02245e-07
3.12981e-06
6.59776e-07
3.09405e-06
-9.56294e-07
3.13355e-06
7.4024e-07
3.1063e-06
-3.35859e-07
3.10442e-06
-3.86552e-07
3.11232e-06
3.30039e-07
3.12166e-06
3.82459e-08
3.11053e-06
-1.79809e-07
3.09556e-06
-1.97368e-07
3.106e-06
8.19572e-08
3.10846e-06
1.02317e-07
3.11562e-06
4.72098e-08
3.10456e-06
-5.48894e-08
3.09555e-06
-8.36552e-08
3.09169e-06
3.38891e-09
3.08874e-06
6.78864e-08
3.08656e-06
8.74331e-08
3.09068e-06
1.52304e-07
1.81679e-07
3.09586e-06
3.25805e-06
-2.96383e-07
3.27926e-06
6.38567e-07
3.24226e-06
-9.19296e-07
3.28286e-06
6.99642e-07
3.25487e-06
-3.07873e-07
3.25334e-06
-3.85017e-07
3.26117e-06
3.22206e-07
3.26977e-06
2.96446e-08
3.25981e-06
-1.69849e-07
3.244e-06
-1.81559e-07
3.25475e-06
7.12053e-08
3.25708e-06
9.99862e-08
3.26325e-06
4.1044e-08
3.25356e-06
-4.51962e-08
3.24345e-06
-7.35453e-08
3.24027e-06
6.56245e-09
3.23753e-06
7.06275e-08
3.23513e-06
8.98336e-08
3.23961e-06
1.47826e-07
1.76356e-07
3.24493e-06
3.41366e-06
-2.90115e-07
3.4358e-06
6.16431e-07
3.39763e-06
-8.81132e-07
3.4392e-06
6.58072e-07
3.41063e-06
-2.79299e-07
3.40931e-06
-3.83693e-07
3.41723e-06
3.14278e-07
3.42487e-06
2.20071e-08
3.41622e-06
-1.612e-07
3.39965e-06
-1.64983e-07
3.41048e-06
6.03748e-08
3.41299e-06
9.74731e-08
3.41783e-06
3.6205e-08
3.40962e-06
-3.69852e-08
3.39871e-06
-6.26343e-08
3.39573e-06
9.537e-09
3.39359e-06
7.27719e-08
3.39104e-06
9.23866e-08
3.39558e-06
1.43287e-07
1.70774e-07
3.40116e-06
3.57673e-06
-2.83438e-07
3.59977e-06
5.93397e-07
3.56052e-06
-8.41887e-07
3.60292e-06
6.15674e-07
3.57393e-06
-2.50304e-07
3.57266e-06
-3.82423e-07
3.58087e-06
3.06069e-07
3.58731e-06
1.5562e-08
3.58009e-06
-1.53976e-07
3.56287e-06
-1.47764e-07
3.57348e-06
4.97572e-08
3.5765e-06
9.44524e-08
3.57976e-06
3.2948e-08
3.57299e-06
-3.02085e-08
3.56172e-06
-5.13732e-08
3.5585e-06
1.27653e-08
3.55711e-06
7.41601e-08
3.55466e-06
9.4835e-08
3.55898e-06
1.38971e-07
1.64946e-07
3.5648e-06
3.74762e-06
-2.7635e-07
3.77151e-06
5.69501e-07
3.73129e-06
-8.01665e-07
3.77435e-06
5.72613e-07
3.74513e-06
-2.21082e-07
3.74373e-06
-3.81022e-07
3.75242e-06
2.97376e-07
3.75746e-06
1.05247e-08
3.75172e-06
-1.48238e-07
3.73405e-06
-1.30095e-07
3.74411e-06
3.96988e-08
3.74795e-06
9.06162e-08
3.7495e-06
3.13993e-08
3.74393e-06
-2.46371e-08
3.73285e-06
-4.02941e-08
3.72905e-06
1.65613e-08
3.72835e-06
7.48639e-08
3.72632e-06
9.68577e-08
3.73026e-06
1.35038e-07
1.59008e-07
3.73619e-06
3.92669e-06
-2.68851e-07
3.9514e-06
5.4479e-07
3.91032e-06
-7.60589e-07
3.95386e-06
5.29077e-07
3.92463e-06
-1.91851e-07
3.92289e-06
-3.79283e-07
3.93228e-06
2.87986e-07
3.93572e-06
7.08609e-09
3.93147e-06
-1.43988e-07
3.91361e-06
-1.1224e-07
3.92273e-06
3.05792e-08
3.92763e-06
8.57163e-08
3.92751e-06
3.15228e-08
3.92277e-06
-1.98938e-08
3.91239e-06
-2.99147e-08
3.90791e-06
2.10335e-08
3.90764e-06
7.51388e-08
3.90631e-06
9.8187e-08
3.90987e-06
1.3148e-07
1.53159e-07
3.91572e-06
4.11435e-06
-2.60946e-07
4.13981e-06
5.19324e-07
4.09802e-06
-7.188e-07
4.14182e-06
4.85278e-07
4.11282e-06
-1.62854e-07
4.11052e-06
-3.7698e-07
4.12082e-06
2.77684e-07
4.12251e-06
5.39646e-09
4.11967e-06
-1.4115e-07
4.10197e-06
-9.45333e-08
4.10976e-06
2.27901e-08
4.11588e-06
7.95936e-08
4.11428e-06
3.31177e-08
4.1099e-06
-1.55064e-08
4.10065e-06
-2.06709e-08
4.09558e-06
2.61023e-08
4.09541e-06
7.5314e-08
4.0949e-06
9.86937e-08
4.09824e-06
1.28147e-07
1.47538e-07
4.10386e-06
4.311e-06
-2.52645e-07
4.33715e-06
4.93174e-07
4.29481e-06
-6.7646e-07
4.33864e-06
4.41454e-07
4.31014e-06
-1.34356e-07
4.30702e-06
-3.73866e-07
4.31844e-06
2.66267e-07
4.31829e-06
5.54996e-09
4.31672e-06
-1.39577e-07
4.29954e-06
-7.73547e-08
4.30564e-06
1.66893e-08
4.31301e-06
7.22252e-08
4.31031e-06
3.58173e-08
4.30577e-06
-1.09728e-08
4.29792e-06
-1.28205e-08
4.29256e-06
3.1464e-08
4.29213e-06
7.57477e-08
4.29242e-06
9.83991e-08
4.29575e-06
1.24821e-07
1.42197e-07
4.30109e-06
4.51709e-06
-2.43959e-07
4.54384e-06
4.66423e-07
4.50113e-06
-6.33749e-07
4.54472e-06
3.97862e-07
4.51701e-06
-1.06643e-07
4.51283e-06
-3.6969e-07
4.52554e-06
2.53553e-07
4.52353e-06
7.56943e-09
4.52298e-06
-1.39033e-07
4.50676e-06
-6.11286e-08
4.51087e-06
1.2575e-08
4.51936e-06
6.37389e-08
4.51606e-06
3.91163e-08
4.51092e-06
-5.83769e-09
4.50449e-06
-6.38699e-09
4.49928e-06
3.6673e-08
4.49833e-06
7.66936e-08
4.49924e-06
9.74925e-08
4.50277e-06
1.21291e-07
1.37091e-07
4.50788e-06
4.73306e-06
-2.34908e-07
4.76032e-06
4.39167e-07
4.71744e-06
-5.90869e-07
4.76052e-06
3.54784e-07
4.73389e-06
-8.00133e-08
4.7284e-06
-3.64199e-07
4.74255e-06
2.39403e-07
4.73872e-06
1.1396e-08
4.73889e-06
-1.39208e-07
4.72406e-06
-4.62924e-08
4.72598e-06
1.06557e-08
4.73531e-06
5.44031e-08
4.73197e-06
4.2456e-08
4.72592e-06
2.17295e-10
4.72072e-06
-1.18499e-09
4.71613e-06
4.12574e-08
4.71459e-06
7.82334e-08
4.7158e-06
9.62843e-08
4.71967e-06
1.17422e-07
1.32103e-07
4.72466e-06
4.9594e-06
-2.25513e-07
4.98705e-06
4.11518e-07
4.94422e-06
-5.48038e-07
4.98649e-06
3.12519e-07
4.96125e-06
-5.47773e-08
4.9542e-06
-3.57149e-07
4.96987e-06
2.23729e-07
4.96439e-06
1.68791e-08
4.96491e-06
-1.39724e-07
4.95188e-06
-3.32641e-08
4.95152e-06
1.10183e-08
4.9613e-06
4.4615e-08
4.95848e-06
4.52788e-08
4.95138e-06
7.3181e-09
4.94703e-06
3.16818e-09
4.94349e-06
4.47993e-08
4.94147e-06
8.02525e-08
4.94262e-06
9.51323e-08
4.94683e-06
1.13208e-07
1.27089e-07
4.95185e-06
5.19661e-06
-2.15805e-07
5.22453e-06
3.836e-07
5.18198e-06
-5.05494e-07
5.22312e-06
2.71381e-07
5.19959e-06
-3.12448e-08
5.19076e-06
-3.48321e-07
5.20797e-06
2.06518e-07
5.20108e-06
2.37733e-08
5.2015e-06
-1.40151e-07
5.19064e-06
-2.24032e-08
5.18807e-06
1.35886e-08
5.19781e-06
3.48769e-08
5.19598e-06
4.71115e-08
5.18791e-06
1.53823e-08
5.18393e-06
7.14958e-09
5.1817e-06
4.70341e-08
5.1795e-06
8.24505e-08
5.18026e-06
9.43679e-08
5.1847e-06
1.08771e-07
1.21941e-07
5.18985e-06
5.4452e-06
-2.05817e-07
5.47325e-06
3.55549e-07
5.43125e-06
-4.63489e-07
5.47093e-06
2.31692e-07
5.44941e-06
-9.7169e-09
5.43862e-06
-3.37539e-07
5.4573e-06
1.87839e-07
5.44934e-06
3.17364e-08
5.44921e-06
-1.40019e-07
5.44079e-06
-1.39827e-08
5.43626e-06
1.81206e-08
5.44533e-06
2.58017e-08
5.44489e-06
4.7558e-08
5.43614e-06
2.41228e-08
5.43201e-06
1.1287e-08
5.43115e-06
4.78889e-08
5.4292e-06
8.43978e-08
5.42936e-06
9.42169e-08
5.4338e-06
1.04329e-07
1.16628e-07
5.43911e-06
5.70573e-06
-1.9559e-07
5.73376e-06
3.27517e-07
5.69256e-06
-4.22284e-07
5.73047e-06
1.93776e-07
5.71123e-06
9.52646e-09
5.69838e-06
-3.24684e-07
5.71836e-06
1.67856e-07
5.70974e-06
4.03585e-08
5.7086e-06
-1.38881e-07
5.70276e-06
-8.13808e-09
5.69666e-06
2.42163e-08
5.70449e-06
1.79707e-08
5.7056e-06
4.6451e-08
5.69667e-06
3.30546e-08
5.69192e-06
1.60342e-08
5.69226e-06
4.75439e-08
5.69105e-06
8.56072e-08
5.69054e-06
9.47351e-08
5.6947e-06
1.00162e-07
1.11174e-07
5.70016e-06
5.97877e-06
-1.8517e-07
6.00663e-06
2.99664e-07
5.96649e-06
-3.82149e-07
6.00232e-06
1.5795e-07
5.9856e-06
2.6239e-08
5.97064e-06
-3.0972e-07
5.99166e-06
1.46838e-07
5.98286e-06
4.91599e-08
5.98029e-06
-1.36316e-07
5.97702e-06
-4.86237e-09
5.96988e-06
3.13491e-08
5.97593e-06
1.19214e-08
5.97858e-06
4.38012e-08
5.97003e-06
4.16102e-08
5.9644e-06
2.16647e-08
5.96554e-06
4.64015e-08
5.96549e-06
8.56551e-08
5.96446e-06
9.57687e-08
5.96804e-06
9.65785e-08
1.05634e-07
5.97358e-06
6.26493e-06
-1.74609e-07
6.29243e-06
2.72159e-07
6.25364e-06
-3.43354e-07
6.28707e-06
1.24514e-07
6.27309e-06
4.02233e-08
6.25607e-06
-2.92702e-07
6.27776e-06
1.25151e-07
6.26928e-06
5.76399e-08
6.26495e-06
-1.31987e-07
6.26407e-06
-3.9834e-09
6.25652e-06
3.8899e-08
6.26039e-06
8.05339e-09
6.26434e-06
3.9845e-08
6.25677e-06
4.91856e-08
6.25019e-06
2.82473e-08
6.25158e-06
4.50094e-08
6.25295e-06
8.42871e-08
6.25175e-06
9.69663e-08
6.25448e-06
9.38466e-08
1.00101e-07
6.26001e-06
6.56482e-06
-1.63964e-07
6.59181e-06
2.45178e-07
6.55462e-06
-3.06164e-07
6.58539e-06
9.37393e-08
6.57427e-06
5.13435e-08
6.55535e-06
-2.73785e-07
6.57726e-06
1.03239e-07
6.56961e-06
6.52969e-08
6.56328e-06
-1.25657e-07
6.56448e-06
-5.18526e-09
6.55716e-06
4.62222e-08
6.55862e-06
6.58951e-09
6.56348e-06
3.4985e-08
6.5574e-06
5.52607e-08
6.55004e-06
3.56151e-08
6.55109e-06
4.39526e-08
6.55388e-06
8.14976e-08
6.55302e-06
9.783e-08
6.55474e-06
9.21245e-08
9.4732e-08
6.56011e-06
6.87912e-06
-1.53297e-07
6.9054e-06
2.18901e-07
6.87007e-06
-2.7083e-07
6.89795e-06
6.58588e-08
6.88975e-06
5.95389e-08
6.86919e-06
-2.5322e-07
6.89082e-06
8.16054e-08
6.88445e-06
7.16698e-08
6.87604e-06
-1.17252e-07
6.87885e-06
-7.99318e-09
6.87238e-06
5.26912e-08
6.87143e-06
7.54332e-09
6.87665e-06
2.97644e-08
6.87244e-06
5.94639e-08
6.86466e-06
4.33969e-08
6.86488e-06
4.3731e-08
6.86883e-06
7.75519e-08
6.86884e-06
9.78211e-08
6.86957e-06
9.13907e-08
8.97756e-08
6.87453e-06
7.20851e-06
-1.42672e-07
7.23391e-06
1.93506e-07
7.20066e-06
-2.37584e-07
7.22547e-06
4.10527e-08
7.22017e-06
6.48357e-08
7.1983e-06
-2.31354e-07
7.21913e-06
6.07831e-08
7.21443e-06
7.63687e-08
7.20404e-06
-1.06863e-07
7.20786e-06
-1.18136e-08
7.20278e-06
5.77722e-08
7.19962e-06
1.07009e-08
7.20459e-06
2.47967e-08
7.20242e-06
6.16283e-08
7.19474e-06
5.10768e-08
7.19382e-06
4.46585e-08
7.19843e-06
7.29386e-08
7.19974e-06
9.65069e-08
7.19974e-06
9.13952e-08
8.55375e-08
7.20398e-06
7.55371e-06
-1.32158e-07
7.57805e-06
1.69167e-07
7.54709e-06
-2.06626e-07
7.5687e-06
1.94418e-08
7.56619e-06
6.7347e-08
7.54345e-06
-2.08607e-07
7.56293e-06
4.12967e-08
7.56018e-06
7.91179e-08
7.54807e-06
-9.47483e-08
7.55226e-06
-1.60049e-08
7.54895e-06
6.10848e-08
7.544e-06
1.56501e-08
7.54812e-06
2.06759e-08
7.54792e-06
6.18233e-08
7.54092e-06
5.80807e-08
7.53877e-06
4.68038e-08
7.54345e-06
6.82636e-08
7.54625e-06
9.37077e-08
7.54599e-06
9.16567e-08
8.2296e-08
7.54923e-06
7.91548e-06
-1.21822e-07
7.93859e-06
1.46048e-07
7.91009e-06
-1.78123e-07
7.92846e-06
1.07457e-09
7.92852e-06
6.72821e-08
7.90537e-06
-1.85457e-07
7.92303e-06
2.36362e-08
7.92239e-06
7.97594e-08
7.90896e-06
-8.13132e-08
7.91286e-06
-1.99121e-08
7.91152e-06
6.24265e-08
7.90535e-06
2.1827e-08
7.90812e-06
1.79008e-08
7.90962e-06
6.03268e-08
7.90382e-06
6.38811e-08
7.90064e-06
4.99812e-08
7.90478e-06
6.41223e-08
7.90893e-06
8.95586e-08
7.90903e-06
9.15611e-08
8.01811e-08
7.91114e-06
8.29459e-06
-1.11732e-07
8.31634e-06
1.24298e-07
8.29041e-06
-1.52195e-07
8.30556e-06
-1.40693e-08
8.30791e-06
6.4926e-08
8.28486e-06
-1.62406e-07
8.30029e-06
8.20404e-09
8.30176e-06
7.82975e-08
8.28751e-06
-6.70624e-08
8.29057e-06
-2.2975e-08
8.29117e-06
6.18222e-08
8.28442e-06
2.85809e-08
8.28553e-06
1.67856e-08
8.28828e-06
5.75848e-08
8.28407e-06
6.80889e-08
8.28024e-06
5.38073e-08
8.2834e-06
6.0969e-08
8.28848e-06
8.44731e-08
8.2895e-06
9.05464e-08
7.90657e-08
8.29061e-06
8.69188e-06
-1.01955e-07
8.71214e-06
1.04048e-07
8.68885e-06
-1.28915e-07
8.70087e-06
-2.60886e-08
8.70516e-06
6.06436e-08
8.68271e-06
-1.39963e-07
8.69561e-06
-4.6939e-09
8.69903e-06
7.48833e-08
8.68454e-06
-5.25772e-08
8.6863e-06
-2.47321e-08
8.68864e-06
5.9484e-08
8.68196e-06
3.52607e-08
8.68134e-06
1.7403e-08
8.68478e-06
5.41473e-08
8.68235e-06
7.05159e-08
8.67836e-06
5.77998e-08
8.68031e-06
5.90153e-08
8.68576e-06
7.90248e-08
8.68801e-06
8.82914e-08
7.85475e-08
8.68853e-06
9.10822e-06
-9.25515e-08
9.12686e-06
8.54028e-08
9.10625e-06
-1.083e-07
9.11531e-06
-3.51544e-08
9.12111e-06
5.48478e-08
9.09975e-06
-1.18604e-07
9.10993e-06
-1.48777e-08
9.11502e-06
6.97996e-08
9.10087e-06
-3.84302e-08
9.10105e-06
-2.4913e-08
9.10474e-06
5.57898e-08
9.09872e-06
4.12862e-08
9.09651e-06
1.96078e-08
9.10008e-06
5.0578e-08
9.09941e-06
7.11915e-08
9.09574e-06
6.14698e-08
9.09654e-06
5.82112e-08
9.10177e-06
7.37929e-08
9.10524e-06
8.48226e-08
7.80528e-08
9.10574e-06
9.54449e-06
-8.35781e-08
9.56145e-06
6.84436e-08
9.54346e-06
-9.03144e-08
9.54981e-06
-4.15054e-08
9.55668e-06
4.79819e-08
9.53681e-06
-9.87318e-08
9.54424e-06
-2.2314e-08
9.5506e-06
6.34426e-08
9.53733e-06
-2.51635e-08
9.53584e-06
-2.3417e-08
9.5404e-06
5.12252e-08
9.53548e-06
4.62043e-08
9.53203e-06
2.30653e-08
9.53523e-06
4.73711e-08
9.53608e-06
7.03434e-08
9.53314e-06
6.44086e-08
9.53305e-06
5.83046e-08
9.53762e-06
6.92208e-08
9.54197e-06
8.04707e-08
7.70363e-08
9.54299e-06
1.00016e-05
-7.50833e-08
1.00169e-05
5.32195e-08
1.00014e-05
-7.48707e-08
1.00053e-05
-4.543e-08
1.00128e-05
4.04859e-08
9.99478e-06
-8.06672e-08
9.99956e-06
-2.71015e-08
1.00067e-05
5.62743e-08
9.99478e-06
-1.32161e-08
9.99171e-06
-2.03412e-08
9.99662e-06
4.63111e-08
9.99308e-06
4.97491e-08
9.98882e-06
2.73268e-08
9.9913e-06
4.48835e-08
9.99332e-06
6.83326e-08
9.99139e-06
6.63364e-08
9.99075e-06
5.89442e-08
9.99444e-06
6.55305e-08
9.99919e-06
7.57235e-08
7.51732e-08
1.0001e-05
1.04807e-05
-6.71073e-08
1.04941e-05
3.97485e-08
1.04811e-05
-6.18302e-08
1.04829e-05
-4.72604e-08
1.04906e-05
3.27842e-08
1.04746e-05
-6.46298e-08
1.04769e-05
-2.94624e-08
1.04844e-05
4.8781e-08
1.04741e-05
-2.90183e-09
1.04697e-05
-1.59417e-08
1.04745e-05
4.15453e-08
1.04724e-05
5.18498e-08
1.04678e-05
3.18871e-08
1.04694e-05
4.33069e-08
1.04722e-05
6.55854e-08
1.04714e-05
6.7136e-08
1.04705e-05
5.97656e-08
1.04733e-05
6.27262e-08
1.0478e-05
7.10538e-08
7.24406e-08
1.04807e-05
1.09826e-05
-5.96799e-08
1.09943e-05
2.80158e-08
1.09835e-05
-5.10132e-08
1.09836e-05
-4.73464e-08
1.09911e-05
2.52509e-08
1.09772e-05
-5.07281e-08
1.09775e-05
-2.97172e-08
1.09848e-05
4.14258e-08
1.09763e-05
5.60546e-09
1.0971e-05
-1.0575e-08
1.09752e-05
3.73316e-08
1.09744e-05
5.26075e-08
1.097e-05
3.62853e-08
1.09707e-05
4.26485e-08
1.09737e-05
6.25198e-08
1.0974e-05
6.68469e-08
1.09734e-05
6.04439e-08
1.09754e-05
6.06652e-08
1.09797e-05
6.67936e-08
6.90663e-08
1.0983e-05
1.15085e-05
-5.28207e-08
1.15185e-05
1.79756e-08
1.15097e-05
-4.22038e-08
1.15084e-05
-4.60475e-08
1.15155e-05
1.82055e-08
1.15037e-05
-3.89692e-08
1.15023e-05
-2.82516e-08
1.15091e-05
3.46079e-08
1.15024e-05
1.22818e-08
1.14965e-05
-4.65347e-09
1.14999e-05
3.39483e-08
1.15002e-05
5.22489e-08
1.14964e-05
4.0153e-08
1.14962e-05
4.27652e-08
1.14993e-05
5.94913e-08
1.15005e-05
6.56339e-08
1.15002e-05
6.07347e-08
1.15017e-05
5.91343e-08
1.15054e-05
6.30946e-08
6.53916e-08
1.15091e-05
1.20595e-05
-4.65383e-08
1.2068e-05
9.55343e-09
1.20609e-05
-3.51644e-08
1.20586e-05
-4.37073e-08
1.20649e-05
1.18915e-08
1.20552e-05
-2.92625e-08
1.20524e-05
-2.54803e-08
1.20584e-05
2.86249e-08
1.20534e-05
1.7248e-08
1.20474e-05
1.39502e-09
1.20498e-05
3.1538e-08
1.2051e-05
5.1073e-08
1.20479e-05
4.32488e-08
1.20472e-05
4.34196e-08
1.205e-05
5.67509e-08
1.20519e-05
6.37359e-08
1.20521e-05
6.04983e-08
1.20533e-05
5.79018e-08
1.20565e-05
5.99589e-08
6.17317e-08
1.20601e-05
1.26369e-05
-4.08303e-08
1.26438e-05
2.64907e-09
1.26383e-05
-2.96414e-08
1.26352e-05
-4.06463e-08
1.26406e-05
6.47435e-09
1.26328e-05
-2.14364e-08
1.26291e-05
-2.18187e-08
1.26341e-05
2.36641e-08
1.26306e-05
2.07164e-08
1.26248e-05
7.21706e-09
1.26262e-05
3.0094e-08
1.26279e-05
4.93957e-08
1.26257e-05
4.54599e-08
1.26248e-05
4.43439e-08
1.26271e-05
5.44258e-08
1.26294e-05
6.14145e-08
1.26302e-05
5.9699e-08
1.26314e-05
5.67607e-08
1.2634e-05
5.72971e-08
5.82959e-08
1.26375e-05
1.32418e-05
-3.56833e-08
1.32473e-05
-2.86005e-09
1.3243e-05
-2.53792e-08
1.32395e-05
-3.71444e-08
1.3244e-05
2.04084e-09
1.32378e-05
-1.52634e-08
1.32336e-05
-1.76517e-08
1.32375e-05
1.98089e-08
1.32352e-05
2.29583e-08
1.32299e-05
1.25314e-08
1.32305e-05
2.95056e-08
1.32324e-05
4.75041e-08
1.32311e-05
4.67894e-08
1.32301e-05
4.52879e-08
1.3232e-05
5.25323e-08
1.32345e-05
5.89077e-08
1.32358e-05
5.83858e-08
1.32371e-05
5.55538e-08
1.32394e-05
5.49813e-08
5.51739e-08
1.32425e-05
1.38756e-05
-3.10766e-08
1.38798e-05
-7.10695e-09
1.38766e-05
-2.21334e-08
1.38729e-05
-3.34391e-08
1.38763e-05
-1.38427e-09
1.38715e-05
-1.04914e-08
1.38672e-05
-1.33066e-08
1.38699e-05
1.70452e-08
1.38686e-05
2.42659e-08
1.3864e-05
1.71499e-08
1.38639e-05
2.95912e-08
1.38658e-05
4.56236e-08
1.38653e-05
4.73289e-08
1.38645e-05
4.605e-08
1.3866e-05
5.1008e-08
1.38685e-05
5.6397e-08
1.38702e-05
5.66637e-08
1.38716e-05
5.41843e-08
1.38737e-05
5.28843e-08
5.23644e-08
1.38765e-05
1.45396e-05
-2.69815e-08
1.45427e-05
-1.02341e-08
1.45402e-05
-1.96759e-08
1.45365e-05
-2.97172e-08
1.4539e-05
-3.84092e-09
1.45353e-05
-6.85628e-09
1.45311e-05
-9.04175e-09
1.45328e-05
1.52814e-08
1.45322e-05
2.49151e-08
1.45284e-05
2.09796e-08
1.45278e-05
3.01352e-08
1.45295e-05
4.39038e-08
1.45296e-05
4.72235e-08
1.45292e-05
4.64957e-08
1.45305e-05
4.97453e-08
1.45329e-05
5.39961e-08
1.45349e-05
5.46607e-08
1.45364e-05
5.26124e-08
1.45384e-05
5.08999e-08
4.98167e-08
1.4541e-05
1.52353e-05
-2.33626e-08
1.52374e-05
-1.23901e-08
1.52355e-05
-1.78014e-08
1.52319e-05
-2.61157e-08
1.52335e-05
-5.41815e-09
1.52308e-05
-4.09971e-09
1.52268e-05
-5.04668e-09
1.52277e-05
1.43702e-08
1.52274e-05
2.51464e-08
1.52244e-05
2.40082e-08
1.52236e-05
3.09238e-08
1.52251e-05
4.2418e-08
1.52257e-05
4.6636e-08
1.52256e-05
4.656e-08
1.52268e-05
4.86227e-08
1.5229e-05
5.17547e-08
1.52312e-05
5.24996e-08
1.52329e-05
5.08448e-08
1.52349e-05
4.89519e-08
4.74641e-08
1.52372e-05
1.59641e-05
-2.01808e-08
1.59655e-05
-1.37208e-08
1.5964e-05
-1.63332e-08
1.59606e-05
-2.27301e-08
1.59614e-05
-6.22908e-09
1.59593e-05
-1.99409e-09
1.59557e-05
-1.44117e-09
1.5956e-05
1.41344e-08
1.5956e-05
2.51491e-08
1.59537e-05
2.62841e-08
1.59528e-05
3.17707e-08
1.59541e-05
4.11751e-08
1.5955e-05
4.57188e-08
1.59553e-05
4.62368e-08
1.59564e-05
4.75311e-08
1.59585e-05
4.96732e-08
1.59607e-05
5.02793e-08
1.59626e-05
4.89183e-08
1.59646e-05
4.69942e-08
4.52452e-08
1.59668e-05
1.67278e-05
-1.7394e-08
1.67285e-05
-1.43671e-08
1.67273e-05
-1.51259e-08
1.67241e-05
-1.96152e-08
1.67243e-05
-6.4068e-09
1.67227e-05
-3.45322e-10
1.67195e-05
1.71366e-09
1.67193e-05
1.43899e-08
1.67194e-05
2.50558e-08
1.67177e-05
2.78945e-08
1.6717e-05
3.25315e-08
1.6718e-05
4.01379e-08
1.67191e-05
4.45965e-08
1.67198e-05
4.55615e-08
1.6721e-05
4.63884e-08
1.67229e-05
4.77211e-08
1.67251e-05
4.80663e-08
1.67272e-05
4.68831e-08
1.67291e-05
4.50063e-08
4.31126e-08
1.67313e-05
1.75279e-05
-1.49596e-08
1.7528e-05
-1.4459e-08
1.7527e-05
-1.40667e-08
1.75241e-05
-1.67956e-08
1.75238e-05
-6.08858e-09
1.75225e-05
1.00541e-09
1.75198e-05
4.39973e-09
1.75192e-05
1.49628e-08
1.75193e-05
2.49457e-08
1.75183e-05
2.89452e-08
1.75177e-05
3.31076e-08
1.75186e-05
3.92443e-08
1.75198e-05
4.33577e-08
1.75208e-05
4.45918e-08
1.7522e-05
4.51446e-08
1.75239e-05
4.58549e-08
1.75261e-05
4.58962e-08
1.75282e-05
4.47888e-08
1.75302e-05
4.29869e-08
4.10344e-08
1.75323e-05
1.83662e-05
-1.28357e-08
1.83659e-05
-1.41164e-08
1.83649e-05
-1.30717e-08
1.83624e-05
-1.42686e-08
1.83617e-05
-5.40501e-09
1.83605e-05
2.16451e-09
1.83583e-05
6.63806e-09
1.83575e-05
1.57029e-08
1.83576e-05
2.4853e-08
1.8357e-05
2.95432e-08
1.83567e-05
3.34427e-08
1.83575e-05
3.84245e-08
1.83588e-05
4.20566e-08
1.836e-05
4.33917e-08
1.83614e-05
4.3778e-08
1.83632e-05
4.40317e-08
1.83653e-05
4.37802e-08
1.83674e-05
4.26756e-08
1.83695e-05
4.09466e-08
3.89923e-08
1.83715e-05
1.92445e-05
-1.09827e-08
1.92439e-05
-1.34443e-08
1.92429e-05
-1.20852e-08
1.92406e-05