/*--------------------------------*- C++ -*----------------------------------*\
| =========                 |                                                 |
| \\      /  F ield         | OpenFOAM: The Open Source CFD Toolbox           |
|  \\    /   O peration     | Version:  2106                                  |
|   \\  /    A nd           | Website:  www.openfoam.com                      |
|    \\/     M anipulation  |                                                 |
\*---------------------------------------------------------------------------*/
FoamFile
{
    version     2.0;
    format      ascii;
    arch        "LSB;label=32;scalar=64";
    class       volVectorField;
    location    "0.365";
    object      U;
}
// * * * * * * * * * * * * * * * * * * * * * * * * * * * * * * * * * * * * * //

dimensions      [0 1 -1 0 0 0 0];

internalField   nonuniform List<vector> 
9600
(
(0.788838 -0.00634427 0)
(1.20824 0.0106662 0)
(0.912267 -0.00455491 0)
(1.12976 0.0105193 0)
(0.850539 -0.0107681 0)
(1.16922 0.00203564 0)
(0.888253 -0.00162881 0)
(1.14975 0.00555455 0)
(0.873375 -0.00146202 0)
(1.12157 -0.000699395 0)
(0.892232 -0.00311495 0)
(1.11889 3.05511e-05 0)
(0.899289 0.00363988 0)
(1.13884 -0.00395493 0)
(0.883452 0.00152663 0)
(1.15123 0.000401437 0)
(0.879638 -0.00293407 0)
(1.13883 -9.45908e-05 0)
(0.875882 0.00187297 0)
(1.13106 0.00285938 0)
(0.802021 -0.00643334 0)
(1.19957 0.0100066 0)
(0.929225 -0.00409361 0)
(1.12457 0.0111573 0)
(0.876629 -0.0112911 0)
(1.15859 0.00174368 0)
(0.912959 -0.00164469 0)
(1.13626 0.00589477 0)
(0.905684 -0.00125943 0)
(1.10219 -0.000726616 0)
(0.924215 -0.0033046 0)
(1.09388 0.000173977 0)
(0.937597 0.00298778 0)
(1.10103 -0.00342226 0)
(0.93456 0.000997642 0)
(1.09488 0.000727719 0)
(0.954799 -0.00245164 0)
(1.05871 -0.000173443 0)
(0.978563 0.00330028 0)
(1.0148 0.00253181 0)
(0.826443 -0.00656123 0)
(1.17901 0.00922583 0)
(0.952971 -0.00362253 0)
(1.11302 0.0117158 0)
(0.910694 -0.0117081 0)
(1.1345 0.00151648 0)
(0.950051 -0.00153493 0)
(1.11113 0.00618629 0)
(0.950036 -0.000946871 0)
(1.0709 -0.00083667 0)
(0.964488 -0.00328108 0)
(1.05863 2.86365e-05 0)
(0.982026 0.00279509 0)
(1.05928 -0.0032872 0)
(0.98479 0.00108242 0)
(1.0481 0.000220229 0)
(1.00331 -0.00159918 0)
(1.01938 -0.00088023 0)
(1.00929 0.00406314 0)
(1.00283 0.0034356 0)
(0.859223 -0.00668195 0)
(1.14735 0.00849033 0)
(0.97609 -0.00323672 0)
(1.09537 0.0120766 0)
(0.943244 -0.0118935 0)
(1.10105 0.00123216 0)
(0.983543 -0.00137438 0)
(1.0815 0.00627691 0)
(0.985828 -0.000503537 0)
(1.04061 -0.000927903 0)
(0.991012 -0.00314147 0)
(1.03024 -0.000228482 0)
(1.00726 0.00277889 0)
(1.03226 -0.0033332 0)
(1.00809 0.00129694 0)
(1.02658 -0.000119939 0)
(1.01595 -0.00099051 0)
(1.01122 -0.000909995 0)
(1.00998 0.00437018 0)
(1.00704 0.00441974 0)
(0.89541 -0.00677322 0)
(1.1092 0.00777081 0)
(0.993866 -0.0029464 0)
(1.07408 0.0123481 0)
(0.968806 -0.0118679 0)
(1.06646 0.000845379 0)
(1.0039 -0.00123593 0)
(1.05474 0.00628356 0)
(1.0049 -8.0121e-06 0)
(1.01944 -0.000920357 0)
(1.00039 -0.00301151 0)
(1.01288 -0.000491927 0)
(1.01351 0.00272733 0)
(1.01748 -0.00333503 0)
(1.01207 0.00139051 0)
(1.01655 -0.000269357 0)
(1.01389 -0.000592594 0)
(1.00749 -0.000790645 0)
(1.00626 0.00458447 0)
(1.00509 0.00514598 0)
(0.929392 -0.00682372 0)
(1.07125 0.00712697 0)
(1.00428 -0.00274808 0)
(1.05269 0.0125435 0)
(0.985978 -0.0117044 0)
(1.03773 0.000463122 0)
(1.01062 -0.00114582 0)
(1.0342 0.0062826 0)
(1.01052 0.000442201 0)
(1.00773 -0.000819308 0)
(1.00035 -0.00290286 0)
(1.00305 -0.000733898 0)
(1.01033 0.00265782 0)
(1.00878 -0.00331917 0)
(1.00829 0.00139448 0)
(1.00969 -0.000304307 0)
(1.00843 -0.000318627 0)
(1.00273 -0.000622059 0)
(1.00166 0.00473334 0)
(1.00053 0.00575031 0)
(0.956897 -0.00682633 0)
(1.03951 0.00662148 0)
(1.00796 -0.00264255 0)
(1.03426 0.0126507 0)
(0.996241 -0.0114632 0)
(1.01775 0.000180424 0)
(1.00875 -0.00111159 0)
(1.01975 0.00626485 0)
(1.00948 0.000799738 0)
(1.00241 -0.000675679 0)
(0.998169 -0.00278537 0)
(0.997656 -0.000932622 0)
(1.00494 0.0025827 0)
(1.00341 -0.0033191 0)
(1.00307 0.00138839 0)
(1.00448 -0.000323168 0)
(1.00338 -0.000105621 0)
(0.998315 -0.000392083 0)
(0.997177 0.00478228 0)
(0.996074 0.00630469 0)
(0.976193 -0.00678498 0)
(1.01714 0.00626256 0)
(1.0072 -0.00261293 0)
(1.02048 0.0126735 0)
(1.00192 -0.0111901 0)
(1.00587 1.11773e-05 0)
(1.00391 -0.00110839 0)
(1.01015 0.00620907 0)
(1.00677 0.00105226 0)
(1.0006 -0.000542754 0)
(0.996972 -0.0026438 0)
(0.995236 -0.00107951 0)
(1.00072 0.00250688 0)
(1.00039 -0.00331957 0)
(0.998937 0.00138101 0)
(1.00088 -0.000345714 0)
(0.99981 7.14768e-05 0)
(0.995168 -9.68092e-05 0)
(0.993825 0.00476131 0)
(0.992769 0.00684912 0)
(0.987935 -0.006713 0)
(1.00392 0.00602664 0)
(1.00456 -0.00262695 0)
(1.01154 0.0126173 0)
(1.00488 -0.0109152 0)
(0.999812 -6.82723e-05 0)
(0.999591 -0.00110536 0)
(1.00427 0.00610431 0)
(1.00459 0.00121171 0)
(1.00044 -0.000450493 0)
(0.997065 -0.00248101 0)
(0.994776 -0.00117724 0)
(0.998491 0.00244187 0)
(0.998989 -0.00330774 0)
(0.996441 0.00136933 0)
(0.998663 -0.000348393 0)
(0.997664 0.000206654 0)
(0.993303 0.000250769 0)
(0.991894 0.00471342 0)
(0.990929 0.00738846 0)
(0.994111 -0.00662427 0)
(0.997509 0.00587796 0)
(1.00186 -0.00265671 0)
(1.00655 0.0124903 0)
(1.00629 -0.010647 0)
(0.997241 -9.06702e-05 0)
(0.996961 -0.00108588 0)
(1.0011 0.00595355 0)
(1.00337 0.00130681 0)
(1.00084 -0.000401754 0)
(0.9978 -0.00230489 0)
(0.99531 -0.00123837 0)
(0.997836 0.00239159 0)
(0.998532 -0.00327277 0)
(0.995268 0.00135852 0)
(0.997422 -0.000314563 0)
(0.996506 0.000283276 0)
(0.992366 0.000646371 0)
(0.991082 0.0046567 0)
(0.990308 0.00787611 0)
(0.996899 -0.00652814 0)
(0.995112 0.00578004 0)
(0.999939 -0.00268604 0)
(1.00417 0.0123076 0)
(1.00682 -0.0103801 0)
(0.996445 -8.78844e-05 0)
(0.995801 -0.00104587 0)
(0.999707 0.00576863 0)
(1.00285 0.00136621 0)
(1.00129 -0.0003876 0)
(0.998581 -0.00212224 0)
(0.996099 -0.00128031 0)
(0.997981 0.00235727 0)
(0.998513 -0.00320688 0)
(0.99489 0.00134645 0)
(0.996792 -0.000237039 0)
(0.995927 0.000313405 0)
(0.991984 0.0010777 0)
(0.990934 0.00459447 0)
(0.990417 0.00826322 0)
(0.99797 -0.00642905 0)
(0.994574 0.00570493 0)
(0.998861 -0.00270795 0)
(1.00321 0.0120864 0)
(1.00691 -0.0101069 0)
(0.996395 -8.22486e-05 0)
(0.995499 -0.000987226 0)
(0.999272 0.00556018 0)
(1.00267 0.00141373 0)
(1.00157 -0.000397724 0)
(0.99913 -0.00193632 0)
(0.996762 -0.00131441 0)
(0.998329 0.00233267 0)
(0.998627 -0.00310802 0)
(0.994882 0.0013207 0)
(0.996502 -0.000108159 0)
(0.995665 0.000313718 0)
(0.991899 0.00152375 0)
(0.991094 0.00454287 0)
(0.990836 0.00852933 0)
(0.998317 -0.0063282 0)
(0.994675 0.00563574 0)
(0.998391 -0.00272034 0)
(1.00284 0.011839 0)
(1.0068 -0.0098219 0)
(0.996582 -8.54227e-05 0)
(0.995558 -0.00091217 0)
(0.99924 0.00533446 0)
(1.00258 0.00146329 0)
(1.00167 -0.000423566 0)
(0.999417 -0.00174854 0)
(0.9972 -0.00134418 0)
(0.998597 0.00230753 0)
(0.998734 -0.00297752 0)
(0.994999 0.00127308 0)
(0.996381 6.5382e-05 0)
(0.99558 0.000292733 0)
(0.991965 0.00196367 0)
(0.991371 0.00452955 0)
(0.991331 0.00867081 0)
(0.998417 -0.00622525 0)
(0.994895 0.00556399 0)
(0.998265 -0.00272282 0)
(1.00266 0.0115724 0)
(1.0066 -0.00952245 0)
(0.9968 -0.000102134 0)
(0.995715 -0.000821894 0)
(0.999322 0.00509459 0)
(1.0025 0.00152122 0)
(1.00166 -0.000459455 0)
(0.999518 -0.00155944 0)
(0.997458 -0.00136969 0)
(0.998721 0.00227506 0)
(0.99879 -0.00281519 0)
(0.995137 0.00119983 0)
(0.996329 0.000271888 0)
(0.995597 0.000261944 0)
(0.992114 0.00237507 0)
(0.991687 0.00457685 0)
(0.991822 0.00869445 0)
(0.998453 -0.0061195 0)
(0.995082 0.00548603 0)
(0.998301 -0.00271522 0)
(1.00251 0.0112896 0)
(1.00639 -0.00920755 0)
(0.996993 -0.000133561 0)
(0.99587 -0.000716823 0)
(0.999411 0.00484134 0)
(1.0024 0.00158952 0)
(1.00159 -0.000501867 0)
(0.999521 -0.00137052 0)
(0.99761 -0.00138741 0)
(0.998739 0.00222613 0)
(0.998795 -0.00262053 0)
(0.995265 0.00110011 0)
(0.996301 0.000510082 0)
(0.995674 0.00023966 0)
(0.992315 0.00273698 0)
(0.992015 0.0046957 0)
(0.992303 0.00862055 0)
(0.99848 -0.0060103 0)
(0.995218 0.00540049 0)
(0.9984 -0.00269752 0)
(1.00237 0.0109917 0)
(1.00618 -0.00887676 0)
(0.997158 -0.000180093 0)
(0.996002 -0.000597045 0)
(0.999484 0.00457588 0)
(1.00229 0.00166685 0)
(1.00152 -0.000547108 0)
(0.999487 -0.00118377 0)
(0.997713 -0.00139384 0)
(0.998701 0.00215723 0)
(0.998764 -0.00239783 0)
(0.995383 0.000984369 0)
(0.996276 0.000766413 0)
(0.995782 0.00023685 0)
(0.992552 0.00303004 0)
(0.992346 0.00488034 0)
(0.992781 0.00848023 0)
(0.998511 -0.00589724 0)
(0.99532 0.0053071 0)
(0.998517 -0.00266995 0)
(1.00223 0.010679 0)
(1.00597 -0.00853023 0)
(0.997306 -0.000240703 0)
(0.996114 -0.000463285 0)
(0.999545 0.00429832 0)
(1.00218 0.00175154 0)
(1.00145 -0.000593051 0)
(0.999447 -0.00100212 0)
(0.997797 -0.00138396 0)
(0.998645 0.00206516 0)
(0.998713 -0.00214744 0)
(0.995498 0.00085386 0)
(0.996252 0.00102814 0)
(0.995904 0.00027334 0)
(0.992817 0.00325655 0)
(0.992672 0.00510972 0)
(0.993255 0.00830359 0)
(0.998549 -0.00578015 0)
(0.995403 0.00520593 0)
(0.998634 -0.00263272 0)
(1.00209 0.0103516 0)
(1.00576 -0.00816819 0)
(0.997449 -0.000314874 0)
(0.996214 -0.000316248 0)
(0.999596 0.00401141 0)
(1.00207 0.00183971 0)
(1.00138 -0.000637765 0)
(0.999413 -0.000829418 0)
(0.997877 -0.00135198 0)
(0.998592 0.001952 0)
(0.998655 -0.00187598 0)
(0.995616 0.000718251 0)
(0.996232 0.00128153 0)
(0.996029 0.000363511 0)
(0.993104 0.00342248 0)
(0.992988 0.00535173 0)
(0.993716 0.00812008 0)
(0.998593 -0.00565893 0)
(0.995477 0.00509707 0)
(0.998747 -0.00258626 0)
(1.00197 0.01001 0)
(1.00556 -0.00779124 0)
(0.997593 -0.000402254 0)
(0.996308 -0.000156953 0)
(0.999641 0.00371741 0)
(1.00196 0.00193037 0)
(1.00131 -0.000675282 0)
(0.999386 -0.000670027 0)
(0.997957 -0.0012941 0)
(0.998552 0.00182052 0)
(0.998597 -0.00159171 0)
(0.995742 0.000596579 0)
(0.996222 0.00150229 0)
(0.996153 0.000506254 0)
(0.993406 0.00353568 0)
(0.993293 0.00558155 0)
(0.994155 0.00796032 0)
(0.998641 -0.00553375 0)
(0.995549 0.00498107 0)
(0.998857 -0.00253118 0)
(1.00184 0.00965484 0)
(1.00536 -0.00740085 0)
(0.99774 -0.000500359 0)
(0.996399 1.22996e-05 0)
(0.999682 0.00341711 0)
(1.00184 0.00202102 0)
(1.00124 -0.00070257 0)
(0.999365 -0.000528744 0)
(0.998037 -0.00120978 0)
(0.998527 0.00167184 0)
(0.998543 -0.00130185 0)
(0.995875 0.000493474 0)
(0.996226 0.00168413 0)
(0.996276 0.000698523 0)
(0.993721 0.00361539 0)
(0.993589 0.00578433 0)
(0.994568 0.00783472 0)
(0.998692 -0.00540473 0)
(0.995621 0.00485807 0)
(0.998965 -0.00246756 0)
(1.00172 0.00928691 0)
(1.00516 -0.00699832 0)
(0.997889 -0.000607947 0)
(0.996489 0.000189647 0)
(0.99972 0.0031151 0)
(1.00172 0.00210405 0)
(1.00117 -0.000716029 0)
(0.999349 -0.000408729 0)
(0.998114 -0.00110106 0)
(0.998515 0.00151159 0)
(0.998495 -0.00101647 0)
(0.996014 0.000418956 0)
(0.996246 0.00183184 0)
(0.996397 0.000923724 0)
(0.994045 0.00367269 0)
(0.99388 0.00594779 0)
(0.994954 0.00773204 0)
(0.998745 -0.00527194 0)
(0.995697 0.00472855 0)
(0.999072 -0.00239681 0)
(1.0016 0.00890801 0)
(1.00495 -0.00658569 0)
(0.998041 -0.00072366 0)
(0.996577 0.000372956 0)
(0.999758 0.00281547 0)
(1.0016 0.00217685 0)
(1.00109 -0.000711979 0)
(0.999338 -0.000311476 0)
(0.998187 -0.000971882 0)
(0.998515 0.0013489 0)
(0.998452 -0.00074079 0)
(0.996155 0.000379009 0)
(0.996283 0.00195213 0)
(0.996518 0.00116882 0)
(0.994376 0.00371856 0)
(0.994171 0.00606912 0)
(0.995315 0.0076401 0)
(0.9988 -0.00513606 0)
(0.995776 0.00459397 0)
(0.999178 -0.00232001 0)
(1.00149 0.00851977 0)
(1.00475 -0.00616604 0)
(0.998195 -0.000844583 0)
(0.996664 0.000559834 0)
(0.999794 0.0025215 0)
(1.00149 0.00223727 0)
(1.00101 -0.000688032 0)
(0.999332 -0.000236159 0)
(0.998256 -0.000824898 0)
(0.998523 0.0011912 0)
(0.998416 -0.000483252 0)
(0.996297 0.000375235 0)
(0.996337 0.00204611 0)
(0.99664 0.00142489 0)
(0.994711 0.00376081 0)
(0.994464 0.0061516 0)
(0.995653 0.00755143 0)
(0.998856 -0.00499716 0)
(0.995857 0.00445443 0)
(0.999283 -0.00223748 0)
(1.00137 0.00812391 0)
(1.00453 -0.00574104 0)
(0.998351 -0.000969871 0)
(0.996749 0.000747008 0)
(0.999831 0.00223784 0)
(1.00138 0.00227985 0)
(1.00092 -0.000640951 0)
(0.999331 -0.000183397 0)
(0.998319 -0.000661924 0)
(0.998538 0.00104472 0)
(0.998386 -0.000247219 0)
(0.996437 0.000412331 0)
(0.996407 0.00211562 0)
(0.996763 0.00168434 0)
(0.995048 0.00380611 0)
(0.994758 0.00619982 0)
(0.995969 0.00746157 0)
(0.998914 -0.00485542 0)
(0.995941 0.00431077 0)
(0.999386 -0.00215132 0)
(1.00127 0.00772292 0)
(1.00432 -0.00531169 0)
(0.998509 -0.00109812 0)
(0.996832 0.000932748 0)
(0.999866 0.00196725 0)
(1.00127 0.00230185 0)
(1.00083 -0.000571775 0)
(0.999334 -0.000153326 0)
(0.998377 -0.000488226 0)
(0.998559 0.000915464 0)
(0.998365 -3.61948e-05 0)
(0.996576 0.000492933 0)
(0.996494 0.00216679 0)
(0.996889 0.00193397 0)
(0.995383 0.00386045 0)
(0.995054 0.00622162 0)
(0.996264 0.00736943 0)
(0.998972 -0.00471172 0)
(0.996028 0.0041644 0)
(0.999488 -0.00206262 0)
(1.00116 0.00731908 0)
(1.0041 -0.00488129 0)
(0.99867 -0.00122571 0)
(0.996912 0.0011149 0)
(0.999899 0.00171319 0)
(1.00117 0.00230072 0)
(1.00074 -0.00047768 0)
(0.999342 -0.000143682 0)
(0.998432 -0.000310306 0)
(0.998584 0.000808417 0)
(0.998356 0.000150012 0)
(0.996712 0.000614239 0)
(0.996594 0.0022125 0)
(0.997022 0.00215892 0)
(0.995716 0.00391978 0)
(0.995349 0.00622969 0)
(0.996537 0.00728106 0)
(0.999031 -0.00456581 0)
(0.996118 0.00401573 0)
(0.999588 -0.00197314 0)
(1.00107 0.00691407 0)
(1.00388 -0.00445076 0)
(0.998832 -0.00135292 0)
(0.996991 0.00128993 0)
(0.999928 0.00148261 0)
(1.00108 0.00227432 0)
(1.00064 -0.000356293 0)
(0.999352 -0.000151209 0)
(0.998484 -0.000130999 0)
(0.998611 0.000728611 0)
(0.998359 0.000310095 0)
(0.996847 0.00076433 0)
(0.996705 0.00226387 0)
(0.99716 0.00235442 0)
(0.996048 0.0039671 0)
(0.995645 0.00622591 0)
(0.996784 0.007211 0)
(0.999092 -0.00441853 0)
(0.996209 0.00386718 0)
(0.999685 -0.00188502 0)
(1.00098 0.00650824 0)
(1.00365 -0.00402142 0)
(0.998995 -0.00147795 0)
(0.99707 0.00145705 0)
(0.999951 0.00127301 0)
(1.001 0.00222124 0)
(1.00053 -0.000207566 0)
(0.999365 -0.000174727 0)
(0.998534 4.90318e-05 0)
(0.99864 0.000683699 0)
(0.998376 0.00043588 0)
(0.996982 0.00092744 0)
(0.996824 0.00232373 0)
(0.997303 0.00252807 0)
(0.996379 0.00399867 0)
(0.995946 0.00619462 0)
(0.997006 0.00716765 0)
(0.999152 -0.00427092 0)
(0.996303 0.00372004 0)
(0.99978 -0.00179817 0)
(1.00089 0.00610254 0)
(1.00342 -0.00359452 0)
(0.999159 -0.0015989 0)
(0.997149 0.00161178 0)
(0.999968 0.00108878 0)
(1.00093 0.00213722 0)
(1.00042 -3.31654e-05 0)
(0.99938 -0.000206933 0)
(0.998587 0.000219833 0)
(0.998666 0.000679659 0)
(0.998407 0.000531263 0)
(0.997121 0.00109565 0)
(0.996949 0.00239995 0)
(0.99745 0.002685 0)
(0.996708 0.00402343 0)
(0.996256 0.00612437 0)
(0.997209 0.00712999 0)
(0.999214 -0.00412208 0)
(0.996399 0.00357297 0)
(0.99987 -0.001713 0)
(1.00082 0.00569715 0)
(1.00318 -0.00317088 0)
(0.99932 -0.0017174 0)
(0.997229 0.00175408 0)
(0.999976 0.000939052 0)
(1.00087 0.00201928 0)
(1.00031 0.0001641 0)
(0.999393 -0.000238186 0)
(0.998643 0.000367258 0)
(0.99869 0.000723369 0)
(0.998451 0.000609267 0)
(0.997267 0.00125545 0)
(0.99708 0.00250254 0)
(0.997598 0.00282777 0)
(0.99703 0.00403871 0)
(0.996574 0.00602541 0)
(0.997404 0.00706827 0)
(0.999275 -0.00397263 0)
(0.996496 0.00342712 0)
(0.999957 -0.00163019 0)
(1.00075 0.0052914 0)
(1.00294 -0.00274957 0)
(0.999479 -0.00183129 0)
(0.997311 0.00188455 0)
(0.999974 0.000825143 0)
(1.00083 0.00186884 0)
(1.00019 0.000377493 0)
(0.999403 -0.000261617 0)
(0.998707 0.000480716 0)
(0.99871 0.000820115 0)
(0.998502 0.000684097 0)
(0.997424 0.00138809 0)
(0.997216 0.00262317 0)
(0.997744 0.00296932 0)
(0.997344 0.00403964 0)
(0.996899 0.00591224 0)
(0.997598 0.00697969 0)
(0.999336 -0.00382403 0)
(0.996594 0.00328476 0)
(1.00004 -0.00154772 0)
(1.00069 0.00488579 0)
(1.0027 -0.00233028 0)
(0.999634 -0.00193946 0)
(0.997396 0.00199427 0)
(0.999959 0.000750277 0)
(1.00081 0.00169064 0)
(1.00008 0.000600818 0)
(0.999407 -0.000263494 0)
(0.998781 0.000546885 0)
(0.99873 0.000956582 0)
(0.998556 0.000771365 0)
(0.997592 0.00148372 0)
(0.997362 0.00273909 0)
(0.997884 0.00311904 0)
(0.997646 0.00402832 0)
(0.997231 0.00577848 0)
(0.997792 0.00687793 0)
(0.999397 -0.00367546 0)
(0.996693 0.00314497 0)
(1.00011 -0.0014641 0)
(1.00064 0.00447806 0)
(1.00245 -0.00191204 0)
(0.999784 -0.00204178 0)
(0.997486 0.00207628 0)
(0.99993 0.000718821 0)
(1.00079 0.00147385 0)
(0.999976 0.000827482 0)
(0.9994 -0.000219754 0)
(0.998867 0.000564698 0)
(0.998753 0.00111235 0)
(0.998606 0.000887948 0)
(0.99777 0.00154624 0)
(0.997522 0.00283011 0)
(0.998018 0.00327899 0)
(0.997931 0.00402198 0)
(0.997569 0.00561142 0)
(0.997991 0.00676586 0)
(0.999457 -0.00352675 0)
(0.996792 0.00300598 0)
(1.00018 -0.0013777 0)
(1.0006 0.00406486 0)
(1.0022 -0.00149323 0)
(0.999926 -0.00213033 0)
(0.997581 0.00212441 0)
(0.999883 0.000738681 0)
(1.00079 0.00123063 0)
(0.999882 0.00103643 0)
(0.999379 -0.000120144 0)
(0.998962 0.000541105 0)
(0.998788 0.0012656 0)
(0.998649 0.0010465 0)
(0.997952 0.00159672 0)
(0.997701 0.00288481 0)
(0.99815 0.00344171 0)
(0.99819 0.00404671 0)
(0.99791 0.00541468 0)
(0.998203 0.00661836 0)
(0.999516 -0.00337901 0)
(0.99689 0.00286821 0)
(1.00024 -0.00128605 0)
(1.00058 0.00364492 0)
(1.00195 -0.00108032 0)
(1.00006 -0.00219859 0)
(0.997685 0.00213433 0)
(0.999818 0.000810306 0)
(1.0008 0.000984273 0)
(0.999803 0.00120926 0)
(0.999341 3.39753e-05 0)
(0.999064 0.000494578 0)
(0.998839 0.00139456 0)
(0.998685 0.00124926 0)
(0.998128 0.00165633 0)
(0.9979 0.00289779 0)
(0.998288 0.00357972 0)
(0.998418 0.00411193 0)
(0.99824 0.00521695 0)
(0.998437 0.0064055 0)
(0.999575 -0.00323118 0)
(0.996989 0.00272835 0)
(1.00028 -0.00118622 0)
(1.00056 0.00321711 0)
(1.0017 -0.000680341 0)
(1.00018 -0.0022401 0)
(0.9978 0.00210057 0)
(0.999735 0.000930511 0)
(1.00082 0.00074432 0)
(0.999746 0.00132943 0)
(0.999286 0.000249477 0)
(0.999165 0.000452086 0)
(0.998914 0.00148155 0)
(0.998716 0.00148336 0)
(0.998289 0.00174224 0)
(0.998114 0.0028747 0)
(0.998443 0.00366708 0)
(0.998616 0.00420683 0)
(0.998541 0.00506578 0)
(0.998694 0.0061301 0)
(0.999632 -0.00308262 0)
(0.997088 0.00258444 0)
(1.00032 -0.00107694 0)
(1.00056 0.00278194 0)
(1.00145 -0.00029759 0)
(1.00028 -0.0022501 0)
(0.997929 0.00201419 0)
(0.999636 0.00108623 0)
(1.00083 0.000529025 0)
(0.999716 0.00138946 0)
(0.999218 0.000513471 0)
(0.999258 0.000434109 0)
(0.999014 0.00151611 0)
(0.998751 0.00172159 0)
(0.998429 0.00186358 0)
(0.998334 0.00283437 0)
(0.998622 0.00369656 0)
(0.9988 0.0042932 0)
(0.998798 0.00498936 0)
(0.998953 0.00584194 0)
(0.999687 -0.00293356 0)
(0.997187 0.0024343 0)
(1.00034 -0.000952278 0)
(1.00056 0.00234387 0)
(1.0012 5.39426e-05 0)
(1.00037 -0.00221495 0)
(0.998073 0.00187529 0)
(0.999524 0.0012701 0)
(1.00083 0.00035279 0)
(0.999717 0.00138373 0)
(0.999142 0.000800201 0)
(0.999332 0.000458859 0)
(0.999139 0.00149811 0)
(0.998797 0.00194002 0)
(0.998545 0.0020218 0)
(0.998547 0.00279755 0)
(0.998821 0.00367846 0)
(0.998986 0.00433317 0)
(0.999015 0.00496403 0)
(0.999187 0.00561388 0)
(0.999739 -0.00278393 0)
(0.997287 0.00227784 0)
(1.00034 -0.000813779 0)
(1.00058 0.00191382 0)
(1.00097 0.000370631 0)
(1.00043 -0.00212955 0)
(0.998232 0.00169225 0)
(0.999405 0.0014694 0)
(1.00082 0.000229811 0)
(0.999749 0.00131134 0)
(0.999067 0.00108546 0)
(0.99938 0.000542963 0)
(0.999284 0.0014421 0)
(0.998865 0.00211933 0)
(0.998637 0.00221844 0)
(0.998745 0.00278131 0)
(0.999035 0.00362311 0)
(0.999182 0.00432673 0)
(0.999211 0.0049348 0)
(0.99938 0.00546456 0)
(0.99979 -0.00263302 0)
(0.997388 0.00211378 0)
(1.00033 -0.000660989 0)
(1.00061 0.00149598 0)
(1.00074 0.000643762 0)
(1.00047 -0.00199149 0)
(0.998406 0.00148003 0)
(0.999286 0.00165962 0)
(1.00078 0.000174761 0)
(0.999811 0.00119365 0)
(0.999003 0.00134841 0)
(0.999399 0.000687187 0)
(0.99944 0.00136993 0)
(0.998963 0.0022407 0)
(0.998713 0.00243852 0)
(0.998914 0.00280339 0)
(0.999254 0.00353749 0)
(0.999389 0.00428629 0)
(0.999398 0.0048772 0)
(0.999544 0.00533836 0)
(0.999837 -0.00247988 0)
(0.997492 0.00193719 0)
(1.00031 -0.000491858 0)
(1.00064 0.00109821 0)
(1.00053 0.000861659 0)
(1.00048 -0.0017992 0)
(0.99859 0.00125064 0)
(0.999172 0.0018259 0)
(1.00072 0.000190474 0)
(0.999897 0.00104726 0)
(0.998959 0.00157174 0)
(0.999386 0.000890095 0)
(0.999596 0.00130627 0)
(0.999097 0.00229731 0)
(0.998783 0.00265201 0)
(0.999046 0.00287198 0)
(0.999469 0.00343799 0)
(0.999608 0.00420719 0)
(0.999579 0.00481457 0)
(0.999691 0.00520336 0)
(0.999881 -0.00232596 0)
(0.997599 0.00175373 0)
(1.00027 -0.000317773 0)
(1.00068 0.000731543 0)
(1.00035 0.001016 0)
(1.00046 -0.00156546 0)
(0.99878 0.00101552 0)
(0.999071 0.00195656 0)
(1.00064 0.000271582 0)
(1 0.000888877 0)
(0.998947 0.00173632 0)
(0.999345 0.00114162 0)
(0.999737 0.00127401 0)
(0.999267 0.00228784 0)
(0.998862 0.00283299 0)
(0.999141 0.00299002 0)
(0.999664 0.00335479 0)
(0.999844 0.00407027 0)
(0.99976 0.00474313 0)
(0.999818 0.00508613 0)
(0.999921 -0.00217115 0)
(0.997709 0.00156336 0)
(1.00022 -0.000141342 0)
(1.00072 0.000403073 0)
(1.00018 0.00110059 0)
(1.00042 -0.00130109 0)
(0.998971 0.000794771 0)
(0.998988 0.00204633 0)
(1.00052 0.00041096 0)
(1.00011 0.000738925 0)
(0.998974 0.00183472 0)
(0.999285 0.00141718 0)
(0.999849 0.00129039 0)
(0.999466 0.00222142 0)
(0.998967 0.00295643 0)
(0.999204 0.00314251 0)
(0.999817 0.00332742 0)
(1.00009 0.00389009 0)
(0.99996 0.00461454 0)
(0.999926 0.00499684 0)
(0.999957 -0.00201546 0)
(0.997824 0.0013683 0)
(1.00015 2.75601e-05 0)
(1.00075 0.000122801 0)
(1.00005 0.00112582 0)
(1.00036 -0.00101909 0)
(0.999159 0.000598693 0)
(0.99893 0.00209322 0)
(1.00038 0.000595664 0)
(1.00022 0.000613067 0)
(0.999043 0.00186986 0)
(0.999216 0.00169544 0)
(0.999923 0.00136395 0)
(0.99968 0.00212808 0)
(0.99911 0.0030109 0)
(0.999256 0.00328637 0)
(0.999917 0.00336284 0)
(1.00031 0.00372683 0)
(1.00019 0.00441023 0)
(1.00004 0.00489199 0)
(0.999989 -0.00186018 0)
(0.997943 0.00117228 0)
(1.00008 0.000189273 0)
(1.00078 -0.000108013 0)
(0.99994 0.00109919 0)
(1.00028 -0.000733696 0)
(0.999339 0.000426141 0)
(0.998899 0.00209743 0)
(1.00022 0.00081604 0)
(1.00032 0.000524004 0)
(0.999156 0.00183412 0)
(0.999153 0.00195745 0)
(0.999953 0.00149789 0)
(0.999895 0.0020359 0)
(0.999291 0.00300038 0)
(0.999314 0.00339354 0)
(0.999974 0.00343265 0)
(1.00048 0.00362731 0)
(1.00043 0.00417203 0)
(1.00018 0.00471677 0)
(1.00002 -0.0017057 0)
(0.998067 0.000976606 0)
(1 0.000339242 0)
(1.0008 -0.00028329 0)
(0.99986 0.00102933 0)
(1.00019 -0.000455954 0)
(0.999507 0.00028407 0)
(0.9989 0.00205528 0)
(1.00005 0.00106042 0)
(1.00039 0.000492614 0)
(0.99931 0.00172946 0)
(0.999114 0.0021711 0)
(0.999939 0.00169264 0)
(1.00009 0.00196951 0)
(0.999508 0.00292823 0)
(0.999394 0.00345811 0)
(1 0.0035033 0)
(1.0006 0.00358086 0)
(1.00065 0.00396652 0)
(1.00037 0.00447498 0)
(1.00004 -0.00155325 0)
(0.998195 0.00078716 0)
(0.999919 0.000465471 0)
(1.00081 -0.000399482 0)
(0.999807 0.000925562 0)
(1.00008 -0.00019823 0)
(0.999657 0.000182788 0)
(0.998936 0.00197171 0)
(0.99987 0.00130659 0)
(1.00043 0.000528734 0)
(0.999492 0.00159042 0)
(0.999116 0.00231036 0)
(0.999893 0.0019191 0)
(1.00025 0.00195165 0)
(0.99975 0.002809 0)
(0.999504 0.00347422 0)
(1.00002 0.00356432 0)
(1.00068 0.00355075 0)
(1.00083 0.00381354 0)
(1.00057 0.00422324 0)
(1.00006 -0.00140406 0)
(0.998327 0.00060563 0)
(0.999837 0.000571909 0)
(1.0008 -0.000470532 0)
(0.999779 0.00080321 0)
(0.999981 3.68417e-05 0)
(0.999787 0.000116729 0)
(0.999006 0.00185277 0)
(0.999697 0.00154518 0)
(1.00042 0.000629151 0)
(0.999689 0.0014444 0)
(0.999165 0.00237331 0)
(0.999829 0.00214546 0)
(1.00036 0.001993 0)
(1 0.0026731 0)
(0.999656 0.00342634 0)
(1.00003 0.00361898 0)
(1.00072 0.00353257 0)
(1.00097 0.0036834 0)
(1.00075 0.00400778 0)
(1.00007 -0.00125931 0)
(0.998462 0.000436317 0)
(0.999757 0.0006509 0)
(1.00078 -0.000495599 0)
(0.999774 0.000668101 0)
(0.999879 0.000248445 0)
(0.999892 9.05903e-05 0)
(0.999109 0.00169074 0)
(0.999543 0.00175626 0)
(1.00037 0.000805516 0)
(0.999884 0.00131578 0)
(0.999266 0.00234758 0)
(0.999767 0.00234398 0)
(1.00042 0.00209287 0)
(1.00024 0.00256311 0)
(0.99985 0.00331073 0)
(1.00006 0.00363946 0)
(1.00071 0.00354102 0)
(1.00107 0.00355664 0)
(1.00091 0.00382315 0)
(1.00008 -0.00112011 0)
(0.998598 0.000282059 0)
(0.999685 0.000701688 0)
(1.00074 -0.000481815 0)
(0.999788 0.000533619 0)
(0.999783 0.000423382 0)
(0.999968 0.000106614 0)
(0.99924 0.00150406 0)
(0.999426 0.00190483 0)
(1.00027 0.00103743 0)
(1.00005 0.00124275 0)
(0.999414 0.00224983 0)
(0.999731 0.00248256 0)
(1.00043 0.00222591 0)
(1.00044 0.00250084 0)
(1.00007 0.00316278 0)
(1.00013 0.00359225 0)
(1.00068 0.00356678 0)
(1.00112 0.00345516 0)
(1.00105 0.0036297 0)
(1.00009 -0.000987412 0)
(0.998734 0.000143606 0)
(0.99962 0.000729009 0)
(1.0007 -0.000442672 0)
(0.999817 0.000406372 0)
(0.999699 0.000566384 0)
(1.00001 0.00015814 0)
(0.999389 0.00131423 0)
(0.999352 0.00199125 0)
(1.00015 0.00128373 0)
(1.00017 0.00123446 0)
(0.99959 0.00212586 0)
(0.999734 0.00254776 0)
(1.00042 0.00235493 0)
(1.00059 0.0024859 0)
(1.00029 0.00303204 0)
(1.00023 0.00348768 0)
(1.00064 0.00356933 0)
(1.00111 0.00341299 0)
(1.00116 0.00343703 0)
(1.00009 -0.000862378 0)
(0.998868 2.44132e-05 0)
(0.999566 0.000729947 0)
(1.00063 -0.000375507 0)
(0.999858 0.000283628 0)
(0.999629 0.000673968 0)
(1.00003 0.000249706 0)
(0.999548 0.00112973 0)
(0.99933 0.0020031 0)
(1.00002 0.00153383 0)
(1.00025 0.00129332 0)
(0.999777 0.00200351 0)
(0.999777 0.00254637 0)
(1.0004 0.00245407 0)
(1.00071 0.00248975 0)
(1.0005 0.00292683 0)
(1.00037 0.00336214 0)
(1.00064 0.00351638 0)
(1.00105 0.00340604 0)
(1.0012 0.0032979 0)
(1.00009 -0.000746059 0)
(0.998998 -7.51712e-05 0)
(0.999525 0.000709544 0)
(1.00056 -0.000294064 0)
(0.999906 0.000179023 0)
(0.999581 0.000741441 0)
(1.00002 0.000370303 0)
(0.9997 0.000978919 0)
(0.999361 0.00192867 0)
(0.9999 0.00174799 0)
(1.00027 0.0014245 0)
(0.999954 0.00190172 0)
(0.999857 0.00249171 0)
(1.00038 0.00252304 0)
(1.00078 0.00249509 0)
(1.00068 0.00283114 0)
(1.00051 0.00324322 0)
(1.00066 0.00342503 0)
(1.00098 0.00338158 0)
(1.00118 0.00322884 0)
(1.00009 -0.000638403 0)
(0.999124 -0.000157044 0)
(0.999497 0.000672845 0)
(1.00048 -0.000203749 0)
(0.999956 9.46094e-05 0)
(0.999555 0.000775048 0)
(0.999987 0.000503744 0)
(0.999831 0.000870135 0)
(0.999437 0.00180595 0)
(0.99981 0.00188812 0)
(1.00025 0.00158848 0)
(1.0001 0.00185729 0)
(0.999967 0.00239566 0)
(1.00038 0.00254325 0)
(1.00083 0.00250414 0)
(1.00084 0.0027325 0)
(1.00066 0.00312377 0)
(1.0007 0.00332599 0)
(1.00092 0.00332004 0)
(1.0011 0.00319506 0)
(1.00008 -0.000540167 0)
(0.999242 -0.000219386 0)
(0.999483 0.00062053 0)
(1.0004 -0.000109001 0)
(1.00001 3.40772e-05 0)
(0.999555 0.000773247 0)
(0.999941 0.00063933 0)
(0.999935 0.000811411 0)
(0.999546 0.00165731 0)
(0.999759 0.00195936 0)
(1.00021 0.00173634 0)
(1.0002 0.00187688 0)
(1.00008 0.00230785 0)
(1.0004 0.00250438 0)
(1.00085 0.00249916 0)
(1.00098 0.00263757 0)
(1.00082 0.00298272 0)
(1.00076 0.00322821 0)
(1.00088 0.00323898 0)
(1.00102 0.00315264 0)
(1.00008 -0.000451489 0)
(0.999353 -0.00026372 0)
(0.999483 0.000558753 0)
(1.00031 -1.85062e-05 0)
(1.00005 -6.21493e-08 0)
(0.999578 0.00074241 0)
(0.999893 0.000760162 0)
(1.00001 0.000806121 0)
(0.999672 0.00150418 0)
(0.999753 0.00195089 0)
(1.00017 0.00186274 0)
(1.00026 0.00191579 0)
(1.00018 0.0022588 0)
(1.00043 0.00244718 0)
(1.00087 0.00246161 0)
(1.00108 0.00255502 0)
(1.00098 0.0028258 0)
(1.00084 0.00311044 0)
(1.00085 0.00316906 0)
(1.00093 0.00309112 0)
(1.00007 -0.000372983 0)
(0.999455 -0.000290013 0)
(0.999496 0.000489162 0)
(1.00023 6.77095e-05 0)
(1.00009 -1.19351e-05 0)
(0.999622 0.000689794 0)
(0.999851 0.000856706 0)
(1.00005 0.000842769 0)
(0.999795 0.00137952 0)
(0.99979 0.00187459 0)
(1.00014 0.00194318 0)
(1.0003 0.00196246 0)
(1.00026 0.00222256 0)
(1.00045 0.00240104 0)
(1.00088 0.00240168 0)
(1.00115 0.00246526 0)
(1.00113 0.00267447 0)
(1.00096 0.00295104 0)
(1.00085 0.00309952 0)
(1.00085 0.00303844 0)
(1.00006 -0.000304838 0)
(0.999547 -0.00029929 0)
(0.999521 0.000414369 0)
(1.00015 0.000146484 0)
(1.00011 -8.33216e-07 0)
(0.999683 0.000624462 0)
(0.999825 0.000918011 0)
(1.00006 0.000906263 0)
(0.999902 0.00128813 0)
(0.999858 0.00177527 0)
(1.00013 0.00195077 0)
(1.00032 0.00200991 0)
(1.00032 0.00219797 0)
(1.00047 0.00236111 0)
(1.00087 0.00235121 0)
(1.0012 0.0023631 0)
(1.00125 0.00253126 0)
(1.0011 0.00277056 0)
(1.00089 0.00298777 0)
(1.00077 0.00300289 0)
(1.00005 -0.000246971 0)
(0.999629 -0.000292985 0)
(0.999557 0.000339258 0)
(1.00008 0.000210967 0)
(1.00012 3.11882e-05 0)
(0.999754 0.000559459 0)
(0.99982 0.000941813 0)
(1.00006 0.000976317 0)
(0.999987 0.0012363 0)
(0.999939 0.00167036 0)
(1.00015 0.00190475 0)
(1.00035 0.00201694 0)
(1.00037 0.00218686 0)
(1.00048 0.00232377 0)
(1.00084 0.0023142 0)
(1.00123 0.00226928 0)
(1.00136 0.00238564 0)
(1.00125 0.00259003 0)
(1.00099 0.00282634 0)
(1.00074 0.00294746 0)
(1.00004 -0.000199021 0)
(0.9997 -0.000274113 0)
(0.999602 0.000268261 0)
(1.00002 0.000258123 0)
(1.00012 8.25227e-05 0)
(0.999826 0.000501335 0)
(0.999838 0.000931442 0)
(1.00005 0.00103439 0)
(1.00005 0.00122612 0)
(1.00002 0.00157116 0)
(1.00019 0.00183514 0)
(1.00038 0.00197596 0)
(1.00041 0.00216084 0)
(1.00048 0.00229377 0)
(1.00079 0.00228675 0)
(1.00121 0.00219673 0)
(1.00143 0.00224552 0)
(1.00139 0.00241324 0)
(1.00114 0.00263403 0)
(1.00077 0.00284053 0)
(1.00004 -0.000160275 0)
(0.999761 -0.000245413 0)
(0.999652 0.000205604 0)
(0.999981 0.000286971 0)
(1.00011 0.000144558 0)
(0.999894 0.000459015 0)
(0.999875 0.000893097 0)
(1.00005 0.00106777 0)
(1.00009 0.00124098 0)
(1.00009 0.00149446 0)
(1.00025 0.00175023 0)
(1.00043 0.00190876 0)
(1.00047 0.00210056 0)
(1.00049 0.00225661 0)
(1.00073 0.00226805 0)