/*--------------------------------*- C++ -*----------------------------------*\
| =========                 |                                                 |
| \\      /  F ield         | OpenFOAM: The Open Source CFD Toolbox           |
|  \\    /   O peration     | Version:  2106                                  |
|   \\  /    A nd           | Website:  www.openfoam.com                      |
|    \\/     M anipulation  |                                                 |
\*---------------------------------------------------------------------------*/
FoamFile
{
    version     2.0;
    format      ascii;
    arch        "LSB;label=32;scalar=64";
    class       volVectorField;
    location    "0.485";
    object      U;
}
// * * * * * * * * * * * * * * * * * * * * * * * * * * * * * * * * * * * * * //

dimensions      [0 1 -1 0 0 0 0];

internalField   nonuniform List<vector> 
9600
(
(0.861103 -0.010131 0)
(1.1338 0.0105614 0)
(0.891614 -0.00399804 0)
(1.14722 0.00398142 0)
(0.896544 0.00266885 0)
(1.12545 -0.00108752 0)
(0.893521 -0.00312562 0)
(1.15961 -0.00841158 0)
(0.908787 -0.00957051 0)
(1.14788 -0.00255162 0)
(0.947117 -0.000809613 0)
(1.10547 0.00132289 0)
(0.93368 0.00858618 0)
(1.09344 -0.000951059 0)
(0.92269 0.0143045 0)
(1.1017 -0.00421302 0)
(0.895912 0.00830048 0)
(1.1085 -0.00708473 0)
(0.863371 0.00453988 0)
(1.1093 -0.00364021 0)
(0.87265 -0.010175 0)
(1.12826 0.0104818 0)
(0.910503 -0.00421509 0)
(1.13783 0.00405477 0)
(0.919966 0.00270087 0)
(1.10916 -0.000830309 0)
(0.919529 -0.00371429 0)
(1.13269 -0.00840743 0)
(0.931744 -0.00963862 0)
(1.12538 -0.00293426 0)
(0.970378 -0.000300902 0)
(1.08392 0.0018097 0)
(0.963186 0.00861676 0)
(1.06193 -0.000369779 0)
(0.963305 0.0138402 0)
(1.0528 -0.00343426 0)
(0.960464 0.00807568 0)
(1.03305 -0.00679802 0)
(0.964305 0.00564099 0)
(0.995447 -0.00443131 0)
(0.890618 -0.0102414 0)
(1.11567 0.0102841 0)
(0.937684 -0.00437789 0)
(1.11788 0.0041095 0)
(0.955366 0.00284829 0)
(1.08345 -0.0006811 0)
(0.954356 -0.00409035 0)
(1.09312 -0.00837919 0)
(0.96326 -0.00971516 0)
(1.08934 -0.00331024 0)
(1.00104 0.000135814 0)
(1.05541 0.00201517 0)
(0.997606 0.00887404 0)
(1.03464 -0.000325682 0)
(0.99989 0.0136963 0)
(1.02854 -0.00306428 0)
(1.00015 0.00795744 0)
(1.01398 -0.00607242 0)
(1 0.00547095 0)
(0.996171 -0.00245277 0)
(0.911998 -0.0103244 0)
(1.09718 0.00997602 0)
(0.964123 -0.00442236 0)
(1.09094 0.00403376 0)
(0.987807 0.00307902 0)
(1.05578 -0.000574218 0)
(0.983703 -0.00418808 0)
(1.05328 -0.00839657 0)
(0.987202 -0.00975141 0)
(1.05468 -0.00374675 0)
(1.02069 0.000497724 0)
(1.036 0.00208933 0)
(1.01859 0.00912091 0)
(1.0246 -0.00025683 0)
(1.01895 0.0137053 0)
(1.02428 -0.00292866 0)
(1.01545 0.00825337 0)
(1.0143 -0.00591356 0)
(1.00836 0.00573977 0)
(1.00418 -0.00127858 0)
(0.93367 -0.0104059 0)
(1.07568 0.00960025 0)
(0.984479 -0.00436746 0)
(1.063 0.00385766 0)
(1.00854 0.00334008 0)
(1.03257 -0.000462242 0)
(1.00101 -0.00412743 0)
(1.02283 -0.00838907 0)
(0.997412 -0.00981493 0)
(1.02947 -0.00417963 0)
(1.02546 0.000625309 0)
(1.02629 0.0021239 0)
(1.02735 0.00921927 0)
(1.02394 -0.000141776 0)
(1.02697 0.0135274 0)
(1.02508 -0.00256271 0)
(1.02009 0.00827893 0)
(1.01515 -0.0054212 0)
(1.00945 0.00592535 0)
(1.00548 -0.000255754 0)
(0.952915 -0.0104694 0)
(1.05445 0.00920639 0)
(0.997107 -0.00424281 0)
(1.03908 0.00366137 0)
(1.01668 0.00357921 0)
(1.01665 -0.000348071 0)
(1.00762 -0.00398281 0)
(1.00442 -0.00831086 0)
(0.997815 -0.00992163 0)
(1.01325 -0.00457463 0)
(1.02105 0.000562652 0)
(1.02042 0.00205111 0)
(1.02905 0.00916918 0)
(1.02482 -4.05535e-05 0)
(1.02906 0.0133168 0)
(1.02547 -0.00210109 0)
(1.02017 0.008205 0)
(1.01446 -0.00463255 0)
(1.00812 0.0058486 0)
(1.00413 0.00095516 0)
(0.968161 -0.0105036 0)
(1.03601 0.0088392 0)
(1.0031 -0.00408025 0)
(1.02145 0.00349547 0)
(1.01629 0.00376 0)
(1.00744 -0.000242943 0)
(1.0083 -0.00380393 0)
(0.995647 -0.00817389 0)
(0.994757 -0.0100255 0)
(1.00298 -0.004924 0)
(1.01356 0.000372265 0)
(1.015 0.00184571 0)
(1.02664 0.00898867 0)
(1.02401 4.8069e-05 0)
(1.02746 0.0131218 0)
(1.02409 -0.00159875 0)
(1.01808 0.00818336 0)
(1.01257 -0.00375627 0)
(1.00594 0.00569869 0)
(1.00208 0.00227273 0)
(0.979157 -0.0105029 0)
(1.0216 0.0085234 0)
(1.00473 -0.00390905 0)
(1.00995 0.00337466 0)
(1.01231 0.00387303 0)
(1.00295 -0.000163202 0)
(1.00706 -0.00362624 0)
(0.99283 -0.00800428 0)
(0.992114 -0.0100823 0)
(0.996555 -0.00522376 0)
(1.0064 0.000121349 0)
(1.00954 0.0015494 0)
(1.02193 0.00871694 0)
(1.02103 0.000132477 0)
(1.02356 0.0129093 0)
(1.02107 -0.00104649 0)
(1.01497 0.00814437 0)
(1.01003 -0.00282948 0)
(1.00365 0.0055443 0)
(1.00003 0.00355007 0)
(0.986576 -0.0104671 0)
(1.01127 0.00826066 0)
(1.00415 -0.00374757 0)
(1.00319 0.00329 0)
(1.00806 0.00392692 0)
(1.00129 -0.000120281 0)
(1.00579 -0.00346555 0)
(0.993074 -0.00782259 0)
(0.990951 -0.0100742 0)
(0.992812 -0.00546096 0)
(1.00079 -0.00013453 0)
(1.00445 0.00121899 0)
(1.01628 0.00839813 0)
(1.01655 0.000213318 0)
(1.01847 0.012662 0)
(1.01704 -0.000469814 0)
(1.01146 0.00803258 0)
(1.00725 -0.00185946 0)
(1.00151 0.00535013 0)
(0.998258 0.00474633 0)
(0.991424 -0.0104004 0)
(1.00429 0.00804078 0)
(1.0028 -0.00360289 0)
(0.999568 0.00322298 0)
(1.00485 0.00393567 0)
(1.0011 -0.000113198 0)
(1.0049 -0.00332474 0)
(0.994576 -0.00764126 0)
(0.990939 -0.00999962 0)
(0.990828 -0.00562891 0)
(0.996803 -0.000360929 0)
(1.00002 0.000900513 0)
(1.0106 0.00806343 0)
(1.01145 0.000298764 0)
(1.01302 0.0123678 0)
(1.01265 0.000104349 0)
(1.0079 0.00783471 0)
(1.0045 -0.000876399 0)
(0.999583 0.00510814 0)
(0.996747 0.00582186 0)
(0.994606 -0.0103083 0)
(0.999713 0.00785129 0)
(1.00143 -0.00347522 0)
(0.997783 0.00315816 0)
(1.00269 0.00391246 0)
(1.0015 -0.000133496 0)
(1.00421 -0.00320133 0)
(0.996329 -0.00746704 0)
(0.991492 -0.00986465 0)
(0.989822 -0.00573232 0)
(0.994061 -0.000540328 0)
(0.996322 0.000622427 0)
(1.00533 0.00773477 0)
(1.00638 0.000398322 0)
(1.00773 0.0120138 0)
(1.00836 0.000665679 0)
(1.00453 0.00755295 0)
(1.00192 8.34732e-05 0)
(0.997861 0.00484832 0)
(0.995443 0.00673508 0)
(0.996737 -0.0101959 0)
(0.996705 0.00768123 0)
(1.00034 -0.00336136 0)
(0.996949 0.0030882 0)
(1.00123 0.00386803 0)
(1.002 -0.00017267 0)
(1.00355 -0.00309082 0)
(0.997831 -0.00730504 0)
(0.992196 -0.00967816 0)
(0.989263 -0.00577833 0)
(0.992155 -0.000670779 0)
(0.993342 0.000401484 0)
(1.00072 0.00742337 0)
(1.00184 0.000518538 0)
(1.00297 0.0115975 0)
(1.00451 0.00120544 0)
(1.00154 0.00719982 0)
(0.999631 0.000999551 0)
(0.996396 0.00459632 0)
(0.994346 0.00746258 0)
(0.998173 -0.0100668 0)
(0.994708 0.00752184 0)
(0.999568 -0.00325641 0)
(0.996555 0.00301126 0)
(1.00018 0.00381155 0)
(1.00236 -0.000224911 0)
(1.00289 -0.00298847 0)
(0.998892 -0.00715862 0)
(0.992845 -0.00944939 0)
(0.988904 -0.00577501 0)
(0.990815 -0.000759232 0)
(0.991082 0.000242337 0)
(0.996955 0.00712963 0)
(0.998151 0.000665008 0)
(0.999043 0.0111233 0)
(1.00135 0.00172057 0)
(0.999107 0.00679118 0)
(0.997765 0.00186268 0)
(0.99527 0.0043884 0)
(0.99351 0.00799406 0)
(0.99911 -0.009923 0)
(0.993403 0.0073661 0)
(0.999075 -0.00315489 0)
(0.99636 0.0029272 0)
(0.999386 0.00375029 0)
(1.00252 -0.000287268 0)
(1.0023 -0.00289001 0)
(0.999516 -0.00702759 0)
(0.99336 -0.00918865 0)
(0.988685 -0.005731 0)
(0.989911 -0.000814972 0)
(0.989532 0.000141624 0)
(0.99415 0.00684602 0)
(0.995458 0.000840774 0)
(0.996115 0.0105985 0)
(0.998984 0.00221207 0)
(0.997331 0.00634529 0)
(0.996383 0.00265742 0)
(0.994531 0.00426204 0)
(0.992985 0.00833382 0)
(0.999681 -0.00976597 0)
(0.992606 0.00720818 0)
(0.998779 -0.00305169 0)
(0.996272 0.00283542 0)
(0.998819 0.00368962 0)
(1.00253 -0.000358676 0)
(1.00183 -0.00279176 0)
(0.999803 -0.00690861 0)
(0.993729 -0.00890615 0)
(0.988608 -0.00565497 0)
(0.989369 -0.000851056 0)
(0.988621 9.04291e-05 0)
(0.992292 0.00656352 0)
(0.993734 0.00104095 0)
(0.994188 0.0100388 0)
(0.997387 0.0026743 0)
(0.996195 0.00589931 0)
(0.995473 0.00335465 0)
(0.994156 0.0042283 0)
(0.992767 0.00850239 0)
(0.999996 -0.00959669 0)
(0.992185 0.00704328 0)
(0.998607 -0.00294249 0)
(0.996259 0.00273471 0)
(0.998444 0.00363335 0)
(1.00245 -0.000439135 0)
(1.0015 -0.00269036 0)
(0.999879 -0.00679737 0)
(0.993973 -0.00861081 0)
(0.988662 -0.00555348 0)
(0.989119 -0.000881547 0)
(0.988209 7.73362e-05 0)
(0.991225 0.00627498 0)
(0.992796 0.00125671 0)
(0.993093 0.00946031 0)
(0.99641 0.00310636 0)
(0.995573 0.00548708 0)
(0.994945 0.0039428 0)
(0.994062 0.00428324 0)
(0.992801 0.00853201 0)
(1.00015 -0.00941607 0)
(0.99202 0.0068679 0)
(0.998508 -0.00282372 0)
(0.996302 0.00262332 0)
(0.998215 0.00358432 0)
(1.00234 -0.000528733 0)
(1.00127 -0.00258413 0)
(0.999845 -0.00668838 0)
(0.994128 -0.00831032 0)
(0.988812 -0.00543188 0)
(0.989078 -0.000909902 0)
(0.988129 9.43868e-05 0)
(0.990715 0.0059764 0)
(0.992395 0.00148327 0)
(0.992581 0.00887677 0)
(0.995855 0.00350419 0)
(0.9953 0.00512139 0)
(0.994684 0.00442717 0)
(0.994147 0.00441858 0)
(0.993008 0.0084635 0)
(1.00022 -0.00922476 0)
(0.992008 0.0066797 0)
(0.998447 -0.00269286 0)
(0.996383 0.00249983 0)
(0.998077 0.0035439 0)
(1.00222 -0.00062651 0)
(1.00111 -0.00247327 0)
(0.999763 -0.00657693 0)
(0.994232 -0.00801007 0)
(0.989015 -0.00529306 0)
(0.989167 -0.000946233 0)
(0.988239 0.000136589 0)
(0.990535 0.00566684 0)
(0.992302 0.00171359 0)
(0.992412 0.00830399 0)
(0.995545 0.00385574 0)
(0.995226 0.0048305 0)
(0.994586 0.00482064 0)
(0.994322 0.00460418 0)
(0.993314 0.00832883 0)
(1.00025 -0.00902309 0)
(0.992075 0.00647715 0)
(0.998403 -0.00254838 0)
(0.996485 0.00236345 0)
(0.997989 0.00351208 0)
(1.0021 -0.000731184 0)
(1.00097 -0.00235853 0)
(0.999666 -0.00646049 0)
(0.994314 -0.0077142 0)
(0.989243 -0.00513682 0)
(0.989326 -0.000994462 0)
(0.988438 0.000196072 0)
(0.990523 0.00535037 0)
(0.992357 0.00193716 0)
(0.992418 0.00776041 0)
(0.995358 0.00414996 0)
(0.995251 0.00461917 0)
(0.994577 0.00513107 0)
(0.99453 0.00481116 0)
(0.993669 0.00815507 0)
(1.00027 -0.00881134 0)
(0.99218 0.00625967 0)
(0.998365 -0.00238968 0)
(0.996599 0.00221353 0)
(0.997922 0.00348984 0)
(1.00198 -0.000842809 0)
(1.00086 -0.00223979 0)
(0.999564 -0.0063366 0)
(0.994389 -0.0074264 0)
(0.989479 -0.00496218 0)
(0.989517 -0.00105342 0)
(0.988673 0.000266781 0)
(0.990584 0.00503081 0)
(0.992472 0.00214355 0)
(0.9925 0.00725866 0)
(0.995229 0.0043916 0)
(0.995319 0.00446264 0)
(0.99462 0.00536859 0)
(0.994741 0.00502992 0)
(0.994045 0.00795945 0)
(1.00028 -0.00858957 0)
(0.992301 0.00602701 0)
(0.998329 -0.00221661 0)
(0.996718 0.00205035 0)
(0.997863 0.00347683 0)
(1.00186 -0.000959756 0)
(1.00075 -0.00211883 0)
(0.999461 -0.00620116 0)
(0.994466 -0.00715072 0)
(0.989715 -0.00476749 0)
(0.989725 -0.0011293 0)
(0.988922 0.000346532 0)
(0.990677 0.00471583 0)
(0.992606 0.00232178 0)
(0.992616 0.00680392 0)
(0.995127 0.00458839 0)
(0.995406 0.00435578 0)
(0.994696 0.00555436 0)
(0.994942 0.0052551 0)
(0.994425 0.00775041 0)
(1.00029 -0.00835755 0)
(0.992431 0.00577821 0)
(0.998294 -0.00202839 0)
(0.99684 0.00187414 0)
(0.997806 0.00347106 0)
(1.00175 -0.00107854 0)
(1.00064 -0.00200033 0)
(0.999359 -0.00604958 0)
(0.994549 -0.00689178 0)
(0.989949 -0.00455268 0)
(0.989943 -0.00121356 0)
(0.989178 0.000426948 0)
(0.990784 0.00441744 0)
(0.992746 0.00246475 0)
(0.992747 0.0064032 0)
(0.995042 0.00474259 0)
(0.995502 0.0042872 0)
(0.994798 0.00569605 0)
(0.995128 0.00548163 0)
(0.994801 0.00753651 0)
(1.00031 -0.00811546 0)
(0.992568 0.00551374 0)
(0.998258 -0.00182626 0)
(0.996965 0.00168631 0)
(0.99775 0.00347194 0)
(1.00163 -0.0011975 0)
(1.00053 -0.00188603 0)
(0.999257 -0.00588026 0)
(0.994638 -0.00665095 0)
(0.990182 -0.0043217 0)
(0.990167 -0.00129576 0)
(0.989438 0.000500622 0)
(0.9909 0.00414403 0)
(0.992888 0.00256605 0)
(0.99289 0.00605341 0)
(0.994971 0.0048676 0)
(0.995604 0.00424097 0)
(0.994925 0.00579229 0)
(0.995299 0.00571034 0)
(0.995166 0.0073258 0)
(1.00032 -0.00786336 0)
(0.992713 0.005234 0)
(0.998222 -0.00161092 0)
(0.997093 0.0014878 0)
(0.997693 0.00347873 0)
(1.00152 -0.00131398 0)
(1.00043 -0.00177975 0)
(0.999155 -0.00568937 0)
(0.994735 -0.00643411 0)
(0.990414 -0.00407188 0)
(0.990397 -0.00138173 0)
(0.989704 0.000556434 0)
(0.991023 0.00390777 0)
(0.993033 0.00262716 0)
(0.993044 0.00573896 0)
(0.994911 0.00497406 0)
(0.99571 0.00421187 0)
(0.995078 0.00583687 0)
(0.995456 0.00593723 0)
(0.995511 0.00713068 0)
(1.00033 -0.00760158 0)
(0.992865 0.00493969 0)
(0.998186 -0.00138289 0)
(0.997225 0.00127965 0)
(0.997636 0.00348877 0)
(1.00141 -0.00142305 0)
(1.00033 -0.00168692 0)
(0.999051 -0.00547463 0)
(0.99484 -0.00623935 0)
(0.990645 -0.00381227 0)
(0.990629 -0.00145689 0)
(0.989979 0.000587598 0)
(0.991153 0.00371364 0)
(0.993179 0.00265658 0)
(0.993212 0.00545243 0)
(0.994865 0.00506255 0)
(0.995817 0.00420853 0)
(0.995257 0.00583031 0)
(0.995604 0.00614837 0)
(0.995831 0.00696524 0)
(1.00034 -0.00733008 0)
(0.993026 0.00463089 0)
(0.998151 -0.00114355 0)
(0.99736 0.00106518 0)
(0.997581 0.00349673 0)
(1.00129 -0.00152037 0)
(1.00024 -0.00161197 0)
(0.998947 -0.00523431 0)
(0.994953 -0.00605952 0)
(0.990877 -0.00355323 0)
(0.990864 -0.00151333 0)
(0.990264 0.000589202 0)
(0.99129 0.00355408 0)
(0.993326 0.00266684 0)
(0.993394 0.00518565 0)
(0.994835 0.00513568 0)
(0.995921 0.00423031 0)
(0.99546 0.00577329 0)
(0.995747 0.0063272 0)
(0.996118 0.00684533 0)
(1.00035 -0.00704952 0)
(0.993196 0.00430892 0)
(0.998118 -0.00089554 0)
(0.997499 0.000847002 0)
(0.997527 0.00350222 0)
(1.00117 -0.00160014 0)
(1.00016 -0.00156042 0)
(0.998842 -0.00496356 0)
(0.995073 -0.00589614 0)
(0.991111 -0.00329115 0)
(0.991098 -0.0015457 0)
(0.990559 0.000557942 0)
(0.991437 0.00342309 0)
(0.993474 0.00267097 0)
(0.993592 0.00493045 0)
(0.994822 0.00520023 0)
(0.996019 0.00427408 0)
(0.995685 0.00567307 0)
(0.995895 0.00645876 0)
(0.996369 0.00677892 0)
(1.00036 -0.00676035 0)
(0.993375 0.00397517 0)
(0.998086 -0.000641502 0)
(0.997641 0.000627682 0)
(0.997476 0.0035035 0)
(1.00105 -0.00165536 0)
(1.00009 -0.00153994 0)
(0.998737 -0.00466675 0)
(0.995199 -0.00574107 0)
(0.991349 -0.0030409 0)
(0.99133 -0.0015403 0)
(0.990866 0.000496552 0)
(0.991597 0.00331696 0)
(0.993619 0.00267842 0)
(0.993807 0.00467949 0)
(0.99483 0.0052469 0)
(0.996107 0.00434047 0)
(0.995926 0.00554674 0)
(0.996056 0.00652954 0)
(0.996585 0.00675936 0)
(1.00037 -0.00646303 0)
(0.993564 0.00363107 0)
(0.998056 -0.000384818 0)
(0.997786 0.000412161 0)
(0.997431 0.0034927 0)
(1.00093 -0.00168195 0)
(1.00003 -0.00155131 0)
(0.998632 -0.00435259 0)
(0.99533 -0.00558594 0)
(0.991593 -0.00281513 0)
(0.991557 -0.00149751 0)
(0.991184 0.000415343 0)
(0.991772 0.00322171 0)
(0.993762 0.00269998 0)
(0.994036 0.00442913 0)
(0.994864 0.00526667 0)
(0.996184 0.00442903 0)
(0.996175 0.00540529 0)
(0.996236 0.00652848 0)
(0.996768 0.00677097 0)
(1.00038 -0.00615924 0)
(0.993763 0.00328003 0)
(0.998029 -0.000130164 0)
(0.997934 0.000206149 0)
(0.997392 0.00346492 0)
(1.0008 -0.00167352 0)
(0.999981 -0.00159022 0)
(0.99853 -0.00402177 0)
(0.995464 -0.00542728 0)
(0.991845 -0.00261521 0)
(0.99178 -0.00141743 0)
(0.991509 0.000326132 0)
(0.991965 0.00312838 0)
(0.993902 0.00274174 0)
(0.994279 0.00418919 0)
(0.994928 0.00525115 0)
(0.996251 0.0045362 0)
(0.996425 0.00526757 0)
(0.99644 0.00645728 0)
(0.996928 0.00679006 0)
(1.00039 -0.00584937 0)
(0.993972 0.0029229 0)
(0.998005 0.000117867 0)
(0.998083 1.3639e-05 0)
(0.997361 0.00341862 0)
(1.00067 -0.00162583 0)
(0.999943 -0.00165519 0)
(0.998432 -0.00368217 0)
(0.995599 -0.00525526 0)
(0.992106 -0.00244569 0)
(0.991999 -0.0013021 0)
(0.99184 0.000230221 0)
(0.992179 0.00302732 0)
(0.994038 0.0028032 0)
(0.994529 0.00396788 0)
(0.995024 0.00519266 0)
(0.996313 0.00464725 0)
(0.996666 0.00514754 0)
(0.99667 0.00632339 0)
(0.997077 0.00678825 0)
(1.0004 -0.00553456 0)
(0.994192 0.00256302 0)
(0.997985 0.000356921 0)
(0.998232 -0.000159574 0)
(0.99734 0.00334751 0)
(1.00054 -0.00154147 0)
(0.999917 -0.00174087 0)
(0.998342 -0.00334657 0)
(0.995732 -0.00505923 0)
(0.992379 -0.0023111 0)
(0.992214 -0.00115809 0)
(0.992173 0.000144383 0)
(0.992417 0.00291237 0)
(0.994173 0.00287783 0)
(0.994782 0.00377146 0)
(0.995155 0.00509431 0)
(0.996373 0.00474971 0)
(0.996892 0.00505239 0)
(0.996921 0.00614138 0)
(0.997229 0.00674294 0)
(1.00041 -0.00521641 0)
(0.994423 0.00220341 0)
(0.997971 0.000583807 0)
(0.998381 -0.00031059 0)
(0.99733 0.00324877 0)
(1.0004 -0.00142297 0)
(0.999902 -0.00183782 0)
(0.998262 -0.00302533 0)
(0.995861 -0.00483191 0)
(0.992663 -0.00220937 0)
(0.992428 -0.000995361 0)
(0.992505 7.96278e-05 0)
(0.992679 0.00278074 0)
(0.994309 0.00296032 0)
(0.995031 0.00361152 0)
(0.995319 0.00495309 0)
(0.996439 0.00482751 0)
(0.997096 0.00498713 0)
(0.997186 0.00593273 0)
(0.997396 0.00663867 0)
(1.00041 -0.00489754 0)
(0.994665 0.00184959 0)
(0.997964 0.000788538 0)
(0.998528 -0.000432781 0)
(0.997331 0.00312729 0)
(1.00025 -0.00127853 0)
(0.999898 -0.00193497 0)
(0.998195 -0.00272818 0)
(0.995986 -0.00457302 0)
(0.992959 -0.00213251 0)
(0.992643 -0.000818253 0)
(0.992832 4.76083e-05 0)
(0.992965 0.00263427 0)
(0.994451 0.0030355 0)
(0.995272 0.00348907 0)
(0.995512 0.00478154 0)
(0.996518 0.004876 0)
(0.997279 0.00495833 0)
(0.997454 0.00572615 0)
(0.997588 0.00647204 0)
(1.00042 -0.00457831 0)
(0.994916 0.00150325 0)
(0.997965 0.000969636 0)
(0.998672 -0.000523116 0)
(0.997345 0.00298066 0)
(1.0001 -0.00111019 0)
(0.999902 -0.00202342 0)
(0.998144 -0.00246357 0)
(0.996105 -0.00428341 0)
(0.993265 -0.00207269 0)
(0.992864 -0.000641675 0)
(0.993151 5.33945e-05 0)
(0.993272 0.00247586 0)
(0.994602 0.00309432 0)
(0.995502 0.00339664 0)
(0.995729 0.00459176 0)
(0.99662 0.00488219 0)
(0.997442 0.00494762 0)
(0.99771 0.00554324 0)
(0.997803 0.00625103 0)
(1.00042 -0.00426137 0)
(0.995175 0.00116992 0)
(0.997975 0.0011204 0)
(0.998812 -0.000581644 0)
(0.997372 0.0028116 0)
(0.999945 -0.000924848 0)
(0.999912 -0.00209431 0)
(0.998111 -0.00223495 0)
(0.996218 -0.00396744 0)
(0.99358 -0.00202176 0)
(0.993094 -0.000476541 0)
(0.993461 8.972e-05 0)
(0.993598 0.00231119 0)
(0.994767 0.0031349 0)
(0.995718 0.00333496 0)
(0.995964 0.00439536 0)
(0.996746 0.00484158 0)
(0.997592 0.00492641 0)
(0.997947 0.00539357 0)
(0.998034 0.00600287 0)
(1.00043 -0.00394958 0)
(0.995442 0.000856795 0)
(0.997996 0.00123381 0)
(0.998949 -0.000606062 0)
(0.997413 0.00262753 0)
(0.999791 -0.00073418 0)
(0.999926 -0.0021363 0)
(0.998099 -0.00204193 0)
(0.996326 -0.00363392 0)
(0.993901 -0.00196878 0)
(0.993336 -0.000330773 0)
(0.99376 0.000161906 0)
(0.993938 0.0021536 0)
(0.994949 0.00314834 0)
(0.99592 0.00330793 0)
(0.996209 0.0042011 0)
(0.996898 0.00476185 0)
(0.99774 0.00488898 0)
(0.998162 0.00527616 0)
(0.998266 0.00577254 0)
(1.00043 -0.00364348 0)
(0.995714 0.000564521 0)
(0.998028 0.00131321 0)
(0.999081 -0.00060223 0)
(0.997466 0.00243309 0)
(0.999636 -0.000541856 0)
(0.999941 -0.00214449 0)
(0.998107 -0.00187742 0)
(0.996431 -0.00329506 0)
(0.994224 -0.00189427 0)
(0.993592 -0.000201365 0)
(0.994051 0.000253812 0)
(0.994288 0.001999 0)
(0.995153 0.00313248 0)
(0.996111 0.00330854 0)
(0.996455 0.0040189 0)
(0.997074 0.00463858 0)
(0.997892 0.00482942 0)
(0.998361 0.00516345 0)
(0.998488 0.00557324 0)
(1.00043 -0.00334681 0)
(0.99599 0.000301558 0)
(0.998072 0.00135514 0)
(0.999208 -0.000573927 0)
(0.997532 0.00223292 0)
(0.999485 -0.000357937 0)
(0.999957 -0.00212187 0)
(0.998137 -0.00173566 0)
(0.996534 -0.00295554 0)
(0.994547 -0.0018084 0)
(0.993862 -8.62531e-05 0)
(0.994331 0.000359784 0)
(0.994646 0.00185443 0)
(0.995382 0.00308708 0)
(0.996293 0.00331881 0)
(0.996694 0.00386482 0)
(0.99727 0.0044841 0)
(0.998052 0.00474735 0)
(0.998551 0.00504446 0)
(0.998697 0.00539055 0)
(1.00043 -0.00306055 0)
(0.996266 7.29279e-05 0)
(0.998129 0.00135907 0)
(0.99933 -0.000526398 0)
(0.99761 0.00203234 0)
(0.999338 -0.000188472 0)
(0.999972 -0.00206809 0)
(0.998188 -0.0016115 0)
(0.996637 -0.00262154 0)
(0.994868 -0.00171039 0)
(0.994148 1.88275e-05 0)
(0.994603 0.000484324 0)
(0.995004 0.00172756 0)
(0.995638 0.00300033 0)
(0.996473 0.0033343 0)
(0.996922 0.003751 0)
(0.997481 0.00431187 0)
(0.998226 0.00462882 0)
(0.998733 0.00491996 0)
(0.998894 0.00521581 0)
(1.00043 -0.00278842 0)
(0.996541 -0.000116026 0)
(0.998196 0.00132901 0)
(0.999448 -0.000470829 0)
(0.997697 0.00184223 0)
(0.999197 -3.66766e-05 0)
(0.999984 -0.00198786 0)
(0.99826 -0.00149354 0)
(0.996743 -0.00229981 0)
(0.995186 -0.00160004 0)
(0.994448 0.000113022 0)
(0.994865 0.000631384 0)
(0.995355 0.00162122 0)
(0.995922 0.00286845 0)
(0.996662 0.00333797 0)
(0.997133 0.00367908 0)
(0.997694 0.00414701 0)
(0.998413 0.00447127 0)
(0.998918 0.00478034 0)
(0.999081 0.00504705 0)
(1.00043 -0.00253178 0)
(0.996811 -0.000264052 0)
(0.998272 0.00126433 0)
(0.999561 -0.000414311 0)
(0.997794 0.00166676 0)
(0.999062 0.000103876 0)
(0.999994 -0.00189252 0)
(0.998351 -0.00137545 0)
(0.996852 -0.00198429 0)
(0.995498 -0.00148727 0)
(0.994767 0.000190658 0)
(0.995121 0.000796841 0)
(0.99569 0.00154921 0)
(0.996229 0.00271042 0)
(0.996871 0.00330981 0)
(0.997333 0.00362795 0)
(0.997899 0.00400911 0)
(0.998609 0.00429315 0)
(0.99911 0.00460982 0)
(0.999261 0.00488442 0)
(1.00042 -0.00229049 0)
(0.997074 -0.000373294 0)
(0.998356 0.0011737 0)
(0.999671 -0.000362792 0)
(0.997899 0.00150743 0)
(0.998935 0.000231105 0)
(1 -0.00178735 0)
(0.998461 -0.0012555 0)
(0.996963 -0.00166768 0)
(0.995802 -0.00136647 0)
(0.995104 0.000243021 0)
(0.995373 0.00096478 0)
(0.996002 0.00152849 0)
(0.996552 0.00253844 0)
(0.997104 0.0032389 0)
(0.997529 0.00358271 0)
(0.99809 0.00390368 0)
(0.998801 0.00412775 0)
(0.999314 0.00440447 0)
(0.999443 0.00470761 0)
(1.00041 -0.00206676 0)
(0.997327 -0.000444794 0)
(0.998445 0.00106952 0)
(0.999778 -0.000326623 0)
(0.998012 0.00136987 0)
(0.998814 0.000347887 0)
(1 -0.00168018 0)
(0.998589 -0.001144 0)
(0.997075 -0.00134155 0)
(0.996092 -0.00123596 0)
(0.995459 0.000254472 0)
(0.995631 0.00112011 0)
(0.996285 0.00156965 0)
(0.996876 0.00237052 0)
(0.997365 0.00311334 0)
(0.997734 0.00353195 0)
(0.99827 0.00381787 0)
(0.998976 0.00398773 0)
(0.999517 0.00418876 0)
(0.999633 0.00449903 0)
(1.0004 -0.00186066 0)
(0.997567 -0.000483149 0)
(0.998534 0.000957987 0)
(0.999882 -0.00031069 0)
(0.998132 0.00124641 0)
(0.998699 0.000464352 0)
(1 -0.00157146 0)
(0.998738 -0.00105331 0)
(0.997191 -0.00100659 0)
(0.99636 -0.00107641 0)
(0.99583 0.000231846 0)
(0.995907 0.00124763 0)
(0.996543 0.0016563 0)
(0.997184 0.00224183 0)
(0.997651 0.00294626 0)
(0.997957 0.00345252 0)
(0.998444 0.00374011 0)
(0.999133 0.00386765 0)
(0.99971 0.00398899 0)
(0.999832 0.00426225 0)
(1.00039 -0.00167167 0)
(0.997795 -0.000495133 0)
(0.998622 0.000850148 0)
(0.999982 -0.000314861 0)
(0.99826 0.00112827 0)
(0.99859 0.000581051 0)
(0.999989 -0.00145736 0)
(0.998909 -0.000984252 0)
(0.997316 -0.000674488 0)
(0.996598 -0.000875828 0)
(0.996208 0.000188186 0)
(0.996207 0.00132439 0)
(0.99678 0.00176593 0)
(0.997464 0.0021675 0)
(0.997949 0.0027675 0)
(0.998206 0.00332339 0)
(0.998622 0.00366208 0)
(0.999271 0.00377656 0)
(0.999879 0.00382062 0)
(1.00003 0.00401605 0)
(1.00038 -0.00149874 0)
(0.998007 -0.000489087 0)
(0.998705 0.000755494 0)
(1.00008 -0.000336398 0)
(0.998396 0.0010157 0)
(0.998486 0.000702495 0)
(0.999965 -0.00132767 0)
(0.999102 -0.000947313 0)
(0.997454 -0.000366734 0)
(0.9968 -0.000618155 0)
(0.996579 0.000143241 0)
(0.996538 0.00132656 0)
(0.997011 0.00187916 0)
(0.99771 0.00215269 0)
(0.99824 0.0026036 0)
(0.998479 0.00315258 0)
(0.99882 0.00355504 0)
(0.999399 0.00369517 0)
(1.00001 0.00368772 0)
(1.00022 0.00378348 0)
(1.00036 -0.00134021 0)
(0.998205 -0.000470379 0)
(0.998779 0.000678064 0)
(1.00017 -0.000371931 0)
(0.998542 0.000897651 0)
(0.998388 0.000834194 0)
(0.999923 -0.00116646 0)
(0.999309 -0.000951767 0)
(0.997619 -9.95295e-05 0)
(0.996968 -0.00030805 0)
(0.996923 0.00012437 0)
(0.996898 0.00126044 0)
(0.997253 0.00196152 0)
(0.997922 0.00219016 0)
(0.998507 0.00247485 0)
(0.998766 0.00296178 0)
(0.999043 0.00341146 0)
(0.999531 0.00360027 0)
(1.00012 0.00358896 0)
(1.00038 0.00358958 0)
(1.00035 -0.00119494 0)
(0.998388 -0.000444931 0)
(0.998844 0.000621059 0)
(1.00025 -0.000413113 0)
(0.998701 0.00076628 0)
(0.998301 0.000965438 0)
(0.999855 -0.000974559 0)
(0.999527 -0.000976962 0)
(0.99782 0.000114846 0)
(0.997106 4.12715e-05 0)
(0.997224 0.000164746 0)
(0.997277 0.00115702 0)
(0.997522 0.00199041 0)
(0.998111 0.00224896 0)
(0.998737 0.00240198 0)
(0.999052 0.00277131 0)
(0.999292 0.0032297 0)
(0.999682 0.00347951 0)
(1.00021 0.0034993 0)
(1.00049 0.00344851 0)
(1.00033 -0.00105983 0)
(0.998559 -0.000421912 0)
(0.998896 0.000586624 0)
(1.00032 -0.000452447 0)
(0.998873 0.000619508 0)
(0.998228 0.0010822 0)
(0.999758 -0.00074221 0)
(0.999744 -0.00100428 0)
(0.998064 0.000245576 0)
(0.997226 0.000411596 0)
(0.997466 0.00029206 0)
(0.997655 0.00104412 0)
(0.997823 0.00195916 0)
(0.998293 0.00230417 0)
(0.998927 0.00238376 0)
(0.999313 0.00261162 0)
(0.999557 0.00301809 0)
(0.999859 0.00332565 0)
(1.0003 0.00338704 0)
(1.00056 0.00334252 0)
(1.0003 -0.000932569 0)
(0.998717 -0.000403579 0)
(0.998937 0.000572135 0)
(1.00037 -0.00048178 0)
(0.999057 0.00045803 0)
(0.99818 0.00117765 0)
(0.999631 -0.000469291 0)
(0.999943 -0.00101158 0)
(0.998355 0.00027267 0)
(0.997351 0.000750926 0)
(0.997643 0.000505614 0)
(0.998009 0.000953606 0)
(0.998156 0.00186079 0)
(0.998487 0.00233991 0)
(0.99908 0.00239633 0)
(0.999533 0.00249641 0)
(0.999822 0.00280791 0)
(1.00006 0.00313693 0)
(1.00042 0.00324635 0)
(1.00062 0.00323529 0)
(1.00028 -0.000813129 0)
(0.998866 -0.000391927 0)
(0.998967 0.00057249 0)
(1.0004 -0.000487606 0)
(0.99925 0.000288212 0)
(0.998162 0.00123496 0)
(0.999477 -0.000169241 0)
(1.00011 -0.000974539 0)
(0.998687 0.000221429 0)
(0.997506 0.00102489 0)
(0.997761 0.000776226 0)
(0.99831 0.000925247 0)
(0.998512 0.00172104 0)
(0.998708 0.00233101 0)
(0.999208 0.00243087 0)
(0.999706 0.0024205 0)
(1.00007 0.00262178 0)
(1.00028 0.00292433 0)
(1.00055 0.00308036 0)
(1.00068 0.00310054 0)
(1.00025 -0.000698554 0)
(0.999006 -0.000390204 0)
(0.998992 0.000581041 0)
(1.00041 -0.000467009 0)
(0.999447 0.000116911 0)
(0.998182 0.00125181 0)
(0.999307 0.000134033 0)
(1.00022 -0.000876822 0)
(0.999047 0.000121587 0)
(0.997705 0.00120455 0)
(0.997838 0.00107385 0)
(0.998542 0.000969757 0)
(0.998867 0.00158064 0)
(0.998967 0.00225453 0)
(0.999327 0.00246766 0)
(0.999829 0.00239484 0)
(1.00027 0.00246164 0)
(1.0005 0.00271166 0)
(1.00071 0.00289384 0)
(1.00077 0.00293921 0)
(1.00023 -0.000588778 0)
(0.999138 -0.000395857 0)
(0.999013 0.000591708 0)
(1.00039 -0.000415192 0)
(0.999644 -5.22797e-05 0)
(0.998241 0.00121912 0)
(0.999132 0.000432005 0)
(1.00027 -0.000713538 0)
(0.999413 2.19122e-06 0)
(0.997963 0.00126975 0)
(0.997896 0.00136529 0)
(0.998699 0.00109003 0)
(0.999194 0.00146803 0)
(0.999263 0.00212515 0)
(0.999468 0.00246213 0)
(0.999904 0.00241355 0)
(1.00043 0.00234038 0)
(1.00071 0.00249634 0)
(1.00087 0.00269292 0)
(1.00087 0.00275522 0)
(1.0002 -0.000484837 0)
(0.999263 -0.000406839 0)
(0.999037 0.000598937 0)
(1.00035 -0.000331332 0)
(0.999831 -0.000207482 0)
(0.998348 0.00112821 0)
(0.998967 0.000711929 0)
(1.00027 -0.000482223 0)
(0.999762 -0.000106888 0)
(0.998282 0.00121995 0)
(0.997968 0.00160807 0)
(0.998783 0.00126943 0)
(0.999466 0.00139564 0)
(0.999575 0.00197235 0)
(0.999645 0.0024016 0)
(0.999956 0.00243145 0)
(1.00051 0.00228594 0)
(1.00089 0.00229058 0)
(1.00105 0.00247261 0)
(1.001 0.00255876 0)
(1.00017 -0.000385658 0)
(0.999381 -0.000418122 0)
(0.999066 0.000593442 0)
(1.00029 -0.000219277 0)
(1 -0.000333945 0)
(0.998498 0.000999706 0)
(0.998831 0.000942829 0)
(1.0002 -0.000205264 0)
(1.00006 -0.000169834 0)
(0.998656 0.00108246 0)
(0.998082 0.00176596 0)
(0.998808 0.00147969 0)
(0.999667 0.00137653 0)
(0.999885 0.0018072 0)
(0.999861 0.00229471 0)
(1.00002 0.00241641 0)
(1.00052 0.00227696 0)
(1.001 0.0021413 0)
(1.00122 0.00223262 0)
(1.00114 0.00235473 0)
(1.00014 -0.000294362 0)
(0.999492 -0.000422954 0)
(0.999107 0.000569737 0)
(1.00021 -9.0186e-05 0)
(1.00014 -0.000415319 0)
(0.998689 0.0008375 0)
(0.998735 0.00111808 0)
(1.00008 7.98223e-05 0)
(1.0003 -0.000158755 0)
(0.999061 0.000905565 0)
(0.99826 0.00181092 0)
(0.998801 0.00168621 0)
(0.999781 0.00142915 0)
(1.00017 0.00165661 0)
(1.00011 0.00213415 0)
(1.00011 0.00236271 0)
(1.0005 0.0022621 0)
(1.00103 0.00206426 0)
(1.00135 0.00201105 0)
(1.0013 0.00213059 0)
(1.00011 -0.000212257 0)
(0.999594 -0.000417651 0)
(0.999161 0.000529303 0)
(1.00012 3.98777e-05 0)
(1.00026 -0.000444955 0)
(0.99891 0.000657713 0)
(0.998689 0.00121901 0)
(0.999933 0.000369216 0)
(1.00046 -7.34926e-05 0)
(0.999467 0.000726214 0)
(0.998507 0.00175007 0)
(0.998803 0.00184705 0)
(0.999815 0.00152765 0)
(1.00038 0.00155588 0)
(1.00038 0.00193562 0)
(1.00024 0.00225909 0)
(1.00048 0.00222906 0)
(1.00098 0.00202638 0)
(1.00142 0.00185588 0)
(1.00146 0.00189567 0)
(1.00009 -0.000139473 0)
(0.999688 -0.000399353 0)
(0.999229 0.000472563 0)
(1.00003 0.000167945 0)
(1.00033 -0.000423575 0)
(0.99915 0.000479395 0)
(0.998702 0.00124142 0)
(0.999779 0.000645138 0)
(1.00054 7.40209e-05 0)
(0.999843 0.000581101 0)
(0.998818 0.00160376 0)
(0.998838 0.00194301 0)
(0.999791 0.00164075 0)
(1.00052 0.00150588 0)
(1.00064 0.00174377 0)
(1.00041 0.00209264 0)
(1.00049 0.00217035 0)
(1.0009 0.00199694 0)
(1.00139 0.00177692 0)
(1.00157 0.00169998 0)
(1.00007 -7.87416e-05 0)
(0.99977 -0.000365067 0)
(0.99931 0.000403927 0)
(0.999945 0.000284849 0)
(1.00037 -0.000350301 0)
(0.999392 0.000315834 0)
(0.998777 0.00120127 0)
(0.999639 0.000875738 0)
(1.00054 0.000257852 0)
(1.00016 0.000494759 0)
(0.999174 0.00141091 0)
(0.998933 0.0019469 0)
(0.999731 0.001754 0)
(1.00057 0.001504 0)
(1.00085 0.00158671 0)
(1.00062 0.0018928 0)
(1.00054 0.00206805 0)
(1.00081 0.00196696 0)
(1.0013 0.00174691 0)
(1.00161 0.00158186 0)
(1.00005 -2.90698e-05 0)
(0.999839 -0.000317232 0)
(0.999404 0.0003326 0)
(0.999874 0.000377362 0)
(1.00038 -0.000240549 0)
(0.999622 0.000186334 0)
(0.998908 0.00110948 0)
(0.99953 0.00104682 0)
(1.00049 0.000459065 0)