/*--------------------------------*- C++ -*----------------------------------*\
| =========                 |                                                 |
| \\      /  F ield         | OpenFOAM: The Open Source CFD Toolbox           |
|  \\    /   O peration     | Version:  2106                                  |
|   \\  /    A nd           | Website:  www.openfoam.com                      |
|    \\/     M anipulation  |                                                 |
\*---------------------------------------------------------------------------*/
FoamFile
{
    version     2.0;
    format      ascii;
    arch        "LSB;label=32;scalar=64";
    class       volVectorField;
    location    "0.44";
    object      U;
}
// * * * * * * * * * * * * * * * * * * * * * * * * * * * * * * * * * * * * * //

dimensions      [0 1 -1 0 0 0 0];

internalField   nonuniform List<vector> 
9600
(
(0.842289 -0.00147875 0)
(1.15339 -0.00075101 0)
(0.863211 -0.00951723 0)
(1.16919 0.0043483 0)
(0.881655 -0.00384564 0)
(1.11723 0.0127609 0)
(0.872854 -0.00480805 0)
(1.14164 0.000111048 0)
(0.895647 -0.00973544 0)
(1.15698 -0.00332941 0)
(0.921517 -0.00664058 0)
(1.17751 -0.00256482 0)
(0.951058 -0.00141515 0)
(1.17371 0.00238705 0)
(0.948531 0.00737375 0)
(1.15965 0.00118886 0)
(0.923429 0.013226 0)
(1.15636 0.00161952 0)
(0.89474 0.00685796 0)
(1.15734 0.00323086 0)
(0.855313 -0.00151905 0)
(1.13927 -0.000744984 0)
(0.878286 -0.00983287 0)
(1.15907 0.00427526 0)
(0.901721 -0.00351749 0)
(1.10809 0.0130317 0)
(0.903987 -0.00520955 0)
(1.12369 -2.23346e-05 0)
(0.92739 -0.010117 0)
(1.13409 -0.00350597 0)
(0.954593 -0.00719708 0)
(1.15087 -0.00289964 0)
(0.987705 -0.00158528 0)
(1.14031 0.00256397 0)
(0.996621 0.00748193 0)
(1.10991 0.0019218 0)
(0.991062 0.0133467 0)
(1.08024 0.00245898 0)
(0.996785 0.00793396 0)
(1.04164 0.0031659 0)
(0.878366 -0.0015469 0)
(1.11417 -0.000781091 0)
(0.90191 -0.0101586 0)
(1.13736 0.00422524 0)
(0.932822 -0.0031549 0)
(1.09149 0.0131193 0)
(0.943514 -0.00544549 0)
(1.09336 -0.00016828 0)
(0.963402 -0.0103364 0)
(1.09575 -0.00378747 0)
(0.993424 -0.00758008 0)
(1.10982 -0.00335177 0)
(1.02972 -0.00148023 0)
(1.10078 0.00252011 0)
(1.04183 0.00799859 0)
(1.07351 0.00226147 0)
(1.03554 0.013671 0)
(1.0542 0.00258283 0)
(1.0332 0.00820315 0)
(1.03307 0.00385176 0)
(0.906999 -0.00153622 0)
(1.08297 -0.000850892 0)
(0.927875 -0.0104455 0)
(1.10755 0.00406553 0)
(0.963872 -0.00284494 0)
(1.07258 0.0130288 0)
(0.977085 -0.00542048 0)
(1.06103 -0.000327468 0)
(0.987695 -0.0103532 0)
(1.05693 -0.00417483 0)
(1.01606 -0.00782661 0)
(1.0726 -0.00392057 0)
(1.05059 -0.00140755 0)
(1.07511 0.00233929 0)
(1.06108 0.00845156 0)
(1.06075 0.00243882 0)
(1.05126 0.01407 0)
(1.052 0.00273772 0)
(1.04162 0.00870382 0)
(1.0368 0.00473637 0)
(0.935999 -0.00148572 0)
(1.05215 -0.000930231 0)
(0.950401 -0.0107042 0)
(1.07604 0.00378773 0)
(0.98698 -0.00261584 0)
(1.05624 0.0128916 0)
(0.998847 -0.00520417 0)
(1.03563 -0.00042171 0)
(0.997432 -0.0102503 0)
(1.0281 -0.0045826 0)
(1.02033 -0.00808589 0)
(1.04622 -0.00452107 0)
(1.05122 -0.0015576 0)
(1.0602 0.00211795 0)
(1.06318 0.00862193 0)
(1.05603 0.00270972 0)
(1.05464 0.0141849 0)
(1.05127 0.00316652 0)
(1.04262 0.00922588 0)
(1.03584 0.00568777 0)
(0.960794 -0.00140741 0)
(1.02743 -0.000988185 0)
(0.966456 -0.0109325 0)
(1.04871 0.00346743 0)
(0.999766 -0.00249751 0)
(1.04431 0.0127439 0)
(1.00983 -0.0048711 0)
(1.01984 -0.000399891 0)
(0.998442 -0.0100786 0)
(1.01061 -0.00494575 0)
(1.01495 -0.00835729 0)
(1.02843 -0.00511028 0)
(1.04215 -0.0018733 0)
(1.0488 0.00180659 0)
(1.05783 0.00861898 0)
(1.05137 0.00294135 0)
(1.05255 0.0141377 0)
(1.04863 0.00378742 0)
(1.04011 0.00955141 0)
(1.03264 0.00678157 0)
(0.978872 -0.00132083 0)
(1.01149 -0.00100206 0)
(0.976226 -0.0111161 0)
(1.02838 0.0031553 0)
(1.00421 -0.00249624 0)
(1.03577 0.0125864 0)
(1.01378 -0.00447898 0)
(1.01163 -0.000286526 0)
(0.997028 -0.00985319 0)
(1.0013 -0.00524168 0)
(1.00757 -0.00858486 0)
(1.01582 -0.00566726 0)
(1.03054 -0.00227087 0)
(1.03794 0.00138836 0)
(1.04927 0.00848329 0)
(1.04498 0.00307891 0)
(1.0471 0.0140552 0)
(1.04381 0.00445617 0)
(1.03536 0.00981073 0)
(1.02801 0.0079559 0)
(0.990128 -0.00124446 0)
(1.0036 -0.000970297 0)
(0.981743 -0.0112417 0)
(1.0148 0.00287118 0)
(1.00381 -0.00257969 0)
(1.02871 0.0124104 0)
(1.01399 -0.00407781 0)
(1.00778 -0.000138454 0)
(0.996239 -0.00958341 0)
(0.996873 -0.00546435 0)
(1.00152 -0.00873036 0)
(1.00649 -0.00616222 0)
(1.01933 -0.002685 0)
(1.02713 0.000892253 0)
(1.03905 0.00823797 0)
(1.03671 0.00315786 0)
(1.03923 0.0139088 0)
(1.0369 0.00515178 0)
(1.02901 0.0100426 0)
(1.02228 0.00915298 0)
(0.996089 -0.00118893 0)
(1.00111 -0.000909815 0)
(0.985128 -0.0113 0)
(1.0061 0.00262504 0)
(1.00145 -0.00269877 0)
(1.02192 0.0122062 0)
(1.01243 -0.00370603 0)
(1.00585 -5.73231e-06 0)
(0.9965 -0.00928497 0)
(0.995152 -0.00561764 0)
(0.997427 -0.00877395 0)
(0.999635 -0.00656798 0)
(1.00948 -0.00305742 0)
(1.01662 0.000375314 0)
(1.028 0.00792604 0)
(1.027 0.00320965 0)
(1.02964 0.0136741 0)
(1.02847 0.00586931 0)
(1.02162 0.0102028 0)
(1.01594 0.0102817 0)
(0.998757 -0.00115547 0)
(1.00123 -0.000842877 0)
(0.987647 -0.0112878 0)
(1.00038 0.00242139 0)
(0.998752 -0.00281286 0)
(1.0152 0.0119709 0)
(1.01019 -0.00338569 0)
(1.00454 8.07559e-05 0)
(0.997265 -0.00897556 0)
(0.994791 -0.00571248 0)
(0.995009 -0.008714 0)
(0.994848 -0.00686595 0)
(1.0014 -0.00333954 0)
(1.00699 -0.000100432 0)
(1.01697 0.00758434 0)
(1.01681 0.00326114 0)
(1.01933 0.0133529 0)
(1.01951 0.00657148 0)
(1.014 0.0102605 0)
(1.00962 0.0112641 0)
(0.999761 -0.00113909 0)
(1.00207 -0.00078595 0)
(0.989725 -0.0112102 0)
(0.996431 0.0022587 0)
(0.996405 -0.00289877 0)
(1.00905 0.0117069 0)
(1.00791 -0.00312302 0)
(1.00339 0.000109232 0)
(0.998008 -0.0086676 0)
(0.994996 -0.0057667 0)
(0.993783 -0.00856502 0)
(0.991813 -0.00705413 0)
(0.995291 -0.00350575 0)
(0.998928 -0.000492204 0)
(1.00698 0.00724338 0)
(1.00738 0.00332966 0)
(1.00957 0.0129525 0)
(1.01113 0.00721638 0)
(1.00707 0.0102126 0)
(1.00401 0.0120537 0)
(1.00008 -0.00113326 0)
(1.00278 -0.000745876 0)
(0.99137 -0.0110769 0)
(0.993679 0.00213119 0)
(0.994646 -0.002948 0)
(1.00405 0.011418 0)
(1.00599 -0.00291142 0)
(1.00236 8.1992e-05 0)
(0.998491 -0.00836522 0)
(0.99534 -0.00580087 0)
(0.993298 -0.00834972 0)
(0.990151 -0.00714686 0)
(0.991142 -0.00355654 0)
(0.992933 -0.000777709 0)
(0.998938 0.0069186 0)
(0.999699 0.00342712 0)
(1.0015 0.0124779 0)
(1.00424 0.0077885 0)
(1.00156 0.0100827 0)
(0.9996 0.0126294 0)
(1.00018 -0.00113211 0)
(1.00315 -0.000722708 0)
(0.992541 -0.0108999 0)
(0.991871 0.00202956 0)
(0.993498 -0.00296225 0)
(1.0005 0.0111069 0)
(1.00457 -0.00273638 0)
(1.00155 9.23773e-06 0)
(0.998706 -0.00806731 0)
(0.995639 -0.00582997 0)
(0.993199 -0.0080899 0)
(0.989439 -0.00716683 0)
(0.988677 -0.00351088 0)
(0.989059 -0.000955126 0)
(0.99328 0.00660812 0)
(0.994263 0.0035608 0)
(0.995708 0.0119462 0)
(0.999267 0.00827687 0)
(0.997736 0.00991316 0)
(0.996571 0.0129955 0)
(1.00021 -0.00113119 0)
(1.00325 -0.000714052 0)
(0.993277 -0.0106907 0)
(0.990822 0.00194281 0)
(0.992874 -0.00294817 0)
(0.99832 0.0107751 0)
(1.00364 -0.00258108 0)
(1.00099 -9.75872e-05 0)
(0.998742 -0.00776949 0)
(0.995848 -0.00586075 0)
(0.993251 -0.0078034 0)
(0.989282 -0.00713725 0)
(0.987456 -0.00340138 0)
(0.986959 -0.00103773 0)
(0.98985 0.00630458 0)
(0.990951 0.00372823 0)
(0.992142 0.0113812 0)
(0.996124 0.00867474 0)
(0.995468 0.00974869 0)
(0.994789 0.0131683 0)
(1.00022 -0.00112796 0)
(1.0032 -0.000717179 0)
(0.993696 -0.0104579 0)
(0.990328 0.00186129 0)
(0.992628 -0.00291214 0)
(0.997172 0.0104236 0)
(1.00307 -0.00243197 0)
(1.00065 -0.000228252 0)
(0.998688 -0.00746636 0)
(0.995982 -0.00589678 0)
(0.993332 -0.00750164 0)
(0.989388 -0.0070724 0)
(0.987015 -0.00326322 0)
(0.986084 -0.00104756 0)
(0.98811 0.00600138 0)
(0.989258 0.00391888 0)
(0.990301 0.0108091 0)
(0.994391 0.00898458 0)
(0.99435 0.00961904 0)
(0.993933 0.0131769 0)
(1.00021 -0.00112109 0)
(1.00311 -0.000730202 0)
(0.993923 -0.010207 0)
(0.99018 0.0017778 0)
(0.992615 -0.00285866 0)
(0.996661 0.0100534 0)
(1.00272 -0.00227932 0)
(1.00044 -0.000376972 0)
(0.998598 -0.00715334 0)
(0.996069 -0.00593687 0)
(0.9934 -0.00719461 0)
(0.989585 -0.00698334 0)
(0.986991 -0.00311352 0)
(0.985916 -0.00100361 0)
(0.987429 0.00569054 0)
(0.988586 0.0041215 0)
(0.989564 0.0102594 0)
(0.993563 0.00921278 0)
(0.993943 0.00953355 0)
(0.993656 0.0130663 0)
(1.00019 -0.0011098 0)
(1.00299 -0.000752114 0)
(0.994056 -0.009941 0)
(0.990213 0.00168832 0)
(0.992721 -0.00279124 0)
(0.996476 0.00966522 0)
(1.00248 -0.00211739 0)
(1.00031 -0.000539843 0)
(0.998499 -0.00682988 0)
(0.996131 -0.00597752 0)
(0.99345 -0.00688774 0)
(0.989796 -0.00687467 0)
(0.987155 -0.00297067 0)
(0.986085 -0.000920316 0)
(0.987307 0.00537361 0)
(0.988453 0.00431888 0)
(0.989417 0.00975262 0)
(0.993229 0.00936737 0)
(0.993905 0.00948923 0)
(0.993687 0.0128788 0)
(1.00017 -0.00109395 0)
(1.00288 -0.000782343 0)
(0.994151 -0.00966087 0)
(0.990324 0.00159057 0)
(0.992881 -0.00271024 0)
(0.996428 0.00925925 0)
(1.00228 -0.00194484 0)
(1.00022 -0.000712145 0)
(0.9984 -0.00650046 0)
(0.996182 -0.0060135 0)
(0.993489 -0.00658593 0)
(0.989999 -0.00674132 0)
(0.987392 -0.00285261 0)
(0.986386 -0.00080932 0)
(0.987433 0.00505622 0)
(0.988559 0.00449826 0)
(0.989538 0.00929958 0)
(0.99313 0.00945127 0)
(0.994025 0.00947182 0)
(0.99386 0.0126448 0)
(1.00015 -0.00107323 0)
(1.00277 -0.000821183 0)
(0.994236 -0.00936688 0)
(0.990462 0.00148302 0)
(0.993059 -0.00261552 0)
(0.99643 0.00883555 0)
(1.0021 -0.00176133 0)
(1.00013 -0.000892812 0)
(0.998303 -0.0061645 0)
(0.996229 -0.00604371 0)
(0.993526 -0.00629451 0)
(0.990192 -0.00658388 0)
(0.987655 -0.00275665 0)
(0.986728 -0.000679829 0)
(0.987657 0.00474563 0)
(0.988756 0.00465113 0)
(0.989763 0.00890062 0)
(0.993134 0.00947199 0)
(0.994202 0.00946559 0)
(0.99409 0.0123853 0)
(1.00013 -0.00104725 0)
(1.00266 -0.000869196 0)
(0.994319 -0.00905978 0)
(0.990609 0.00136593 0)
(0.993244 -0.00250912 0)
(0.99645 0.00839649 0)
(1.00192 -0.00156922 0)
(1.00006 -0.00107882 0)
(0.998208 -0.00582407 0)
(0.996274 -0.00606416 0)
(0.993566 -0.00601847 0)
(0.990378 -0.00640244 0)
(0.98793 -0.00268032 0)
(0.987079 -0.000537738 0)
(0.987919 0.00445049 0)
(0.988985 0.00477296 0)
(0.990025 0.00855152 0)
(0.993187 0.0094446 0)
(0.994393 0.00945708 0)
(0.994339 0.0121141 0)
(1.00011 -0.00101599 0)
(1.00255 -0.000926515 0)
(0.994404 -0.00873953 0)
(0.990759 0.00123914 0)
(0.993431 -0.00239043 0)
(0.996477 0.00794442 0)
(1.00173 -0.00137095 0)
(0.999984 -0.00126646 0)
(0.998116 -0.00548721 0)
(0.996319 -0.0060653 0)
(0.993613 -0.00576207 0)
(0.99056 -0.00619512 0)
(0.988215 -0.00262006 0)
(0.987429 -0.000388172 0)
(0.988197 0.00417585 0)
(0.989227 0.00486592 0)
(0.990299 0.00824848 0)
(0.993266 0.00938169 0)
(0.994583 0.00943818 0)
(0.994592 0.0118422 0)
(1.00009 -0.000979119 0)
(1.00245 -0.000993526 0)
(0.994492 -0.00840629 0)
(0.990911 0.00110332 0)
(0.993619 -0.00226024 0)
(0.996511 0.00748018 0)
(1.00155 -0.00116702 0)
(0.999913 -0.00145329 0)
(0.998026 -0.00515824 0)
(0.996363 -0.00604327 0)
(0.993668 -0.00552703 0)
(0.990741 -0.00596297 0)
(0.988509 -0.00257567 0)
(0.98778 -0.000241172 0)
(0.988486 0.00392421 0)
(0.989479 0.00493119 0)
(0.990579 0.00798085 0)
(0.993367 0.00928438 0)
(0.994769 0.00940395 0)
(0.994843 0.0115753 0)
(1.00006 -0.000936639 0)
(1.00234 -0.00106992 0)
(0.994584 -0.00806072 0)
(0.991067 0.000959574 0)
(0.993807 -0.00212086 0)
(0.99655 0.00700601 0)
(1.00136 -0.000962713 0)
(0.999844 -0.00163298 0)
(0.99794 -0.00484373 0)
(0.996406 -0.00599538 0)
(0.993732 -0.0053137 0)
(0.99092 -0.005708 0)
(0.988812 -0.00253835 0)
(0.988132 -0.000104766 0)
(0.988786 0.00369732 0)
(0.989742 0.00496656 0)
(0.990863 0.00774272 0)
(0.993486 0.00915619 0)
(0.994952 0.00934968 0)
(0.99509 0.0113086 0)
(1.00004 -0.000888627 0)
(1.00224 -0.00115504 0)
(0.994678 -0.00770396 0)
(0.991226 0.000808971 0)
(0.993996 -0.00197358 0)
(0.996595 0.0065271 0)
(1.00117 -0.000763094 0)
(0.999776 -0.00180253 0)
(0.997857 -0.00454661 0)
(0.996448 -0.00592301 0)
(0.993805 -0.00511864 0)
(0.991098 -0.00543708 0)
(0.989123 -0.00249455 0)
(0.988488 2.24777e-05 0)
(0.989094 0.00350135 0)
(0.990016 0.00497198 0)
(0.991151 0.00753232 0)
(0.993622 0.0090032 0)
(0.995133 0.00927109 0)
(0.995333 0.0110354 0)
(1.00002 -0.000834772 0)
(1.00214 -0.0012489 0)
(0.994776 -0.00733805 0)
(0.991389 0.000654685 0)
(0.994184 -0.00182065 0)
(0.996646 0.00604776 0)
(1.00098 -0.000572053 0)
(0.999708 -0.00195534 0)
(0.997778 -0.00427003 0)
(0.996487 -0.00582352 0)
(0.993888 -0.00494308 0)
(0.991276 -0.00515923 0)
(0.989439 -0.00244585 0)
(0.988847 0.000140134 0)
(0.989411 0.0033376 0)
(0.990302 0.00495318 0)
(0.991443 0.00734612 0)
(0.993773 0.00882842 0)
(0.995314 0.00916338 0)
(0.995575 0.010749 0)
(0.999991 -0.000775196 0)
(1.00204 -0.00135083 0)
(0.994878 -0.00696444 0)
(0.991557 0.000498298 0)
(0.994373 -0.00166445 0)
(0.996704 0.00557074 0)
(1.0008 -0.000394689 0)
(0.999641 -0.00208703 0)
(0.997704 -0.00401371 0)
(0.996525 -0.00569667 0)
(0.99398 -0.00478514 0)
(0.991454 -0.0048781 0)
(0.989761 -0.00239114 0)
(0.989211 0.000245036 0)
(0.989734 0.00320009 0)
(0.990599 0.00491056 0)
(0.991739 0.00717959 0)
(0.993936 0.00864446 0)
(0.995493 0.00902646 0)
(0.995817 0.0104409 0)
(0.999965 -0.000710365 0)
(1.00195 -0.00145957 0)
(0.994983 -0.00658547 0)
(0.99173 0.000342898 0)
(0.994561 -0.00150887 0)
(0.996768 0.00510265 0)
(1.00061 -0.000236732 0)
(0.999574 -0.00219248 0)
(0.997635 -0.00378301 0)
(0.996561 -0.00554668 0)
(0.994082 -0.00463373 0)
(0.991634 -0.00459233 0)
(0.990087 -0.00232886 0)
(0.98958 0.000340173 0)
(0.990063 0.0030965 0)
(0.990908 0.00484251 0)
(0.99204 0.00701452 0)
(0.994107 0.00846628 0)
(0.995668 0.00887449 0)
(0.99606 0.0101139 0)
(0.99994 -0.00063998 0)
(1.00186 -0.00157459 0)
(0.995092 -0.00620481 0)
(0.991908 0.000192866 0)
(0.994751 -0.00135764 0)
(0.996838 0.0046499 0)
(1.00043 -0.000102328 0)
(0.999506 -0.00226961 0)
(0.997571 -0.0035776 0)
(0.996594 -0.00537724 0)
(0.994195 -0.00448697 0)
(0.991816 -0.00430301 0)
(0.990417 -0.00225985 0)
(0.989957 0.000421688 0)
(0.990396 0.00302547 0)
(0.991224 0.00476036 0)
(0.992348 0.00683419 0)
(0.994287 0.00829299 0)
(0.995836 0.00872674 0)
(0.996298 0.0097873 0)
(0.999914 -0.000564737 0)
(1.00178 -0.0016939 0)
(0.995205 -0.00582593 0)
(0.99209 5.22334e-05 0)
(0.994942 -0.00121583 0)
(0.996913 0.00421683 0)
(1.00025 5.19148e-06 0)
(0.999437 -0.00232416 0)
(0.997512 -0.0033876 0)
(0.996626 -0.00519095 0)
(0.994317 -0.00434943 0)
(0.992 -0.00401141 0)
(0.990748 -0.00217682 0)
(0.990342 0.000488503 0)
(0.990733 0.00297141 0)
(0.991544 0.00467503 0)
(0.992663 0.00664191 0)
(0.994479 0.0081083 0)
(0.995996 0.00858094 0)
(0.996527 0.009473 0)
(0.999889 -0.000485256 0)
(1.0017 -0.00181562 0)
(0.995323 -0.00545256 0)
(0.992274 -7.31948e-05 0)
(0.995134 -0.001087 0)
(0.996994 0.00380767 0)
(1.00007 8.71924e-05 0)
(0.999367 -0.00235325 0)
(0.997458 -0.00321567 0)
(0.996655 -0.00499035 0)
(0.99445 -0.00421528 0)
(0.992188 -0.00372007 0)
(0.991078 -0.00207705 0)
(0.990733 0.000547458 0)
(0.991075 0.00293664 0)
(0.991866 0.00458707 0)
(0.992984 0.00644182 0)
(0.994685 0.00790312 0)
(0.99615 0.00842873 0)
(0.996741 0.00917615 0)
(0.999865 -0.000401606 0)
(1.00163 -0.00193856 0)
(0.995447 -0.00508842 0)
(0.992462 -0.000183682 0)
(0.995326 -0.0009737 0)
(0.99708 0.00342541 0)
(0.999904 0.000141474 0)
(0.999298 -0.00236181 0)
(0.997409 -0.00305788 0)
(0.996681 -0.00478101 0)
(0.994592 -0.00407927 0)
(0.992381 -0.0034323 0)
(0.991408 -0.00196415 0)
(0.991133 0.000591683 0)
(0.991421 0.00292466 0)
(0.992188 0.00450003 0)
(0.993307 0.00622983 0)
(0.994904 0.007677 0)
(0.996302 0.00826945 0)
(0.996938 0.00890253 0)
(0.99984 -0.000314459 0)
(1.00157 -0.00206033 0)
(0.995578 -0.00473624 0)
(0.992652 -0.000275577 0)
(0.995518 -0.000881597 0)
(0.997171 0.00307206 0)
(0.999741 0.000174191 0)
(0.99923 -0.00235658 0)
(0.997365 -0.00290675 0)
(0.996703 -0.00456498 0)
(0.994743 -0.00394728 0)
(0.992578 -0.00314578 0)
(0.991733 -0.00183241 0)
(0.991541 0.000614731 0)
(0.991772 0.00292386 0)
(0.992504 0.00442248 0)
(0.993631 0.00600623 0)
(0.995138 0.00742614 0)
(0.996457 0.00809584 0)
(0.997116 0.00865347 0)
(0.999817 -0.000225854 0)
(1.00151 -0.00217751 0)
(0.995717 -0.00439923 0)
(0.992844 -0.000340687 0)
(0.99571 -0.000812753 0)
(0.997266 0.00274742 0)
(0.999584 0.000192269 0)
(0.999164 -0.00234204 0)
(0.997328 -0.00275802 0)
(0.996723 -0.00434633 0)
(0.994903 -0.0038201 0)
(0.992783 -0.00285761 0)
(0.992052 -0.0016792 0)
(0.991955 0.000615526 0)
(0.992131 0.00292056 0)
(0.992813 0.00436394 0)
(0.993949 0.00578217 0)
(0.995387 0.00715159 0)
(0.99662 0.00789601 0)
(0.997278 0.00842365 0)
(0.999794 -0.00013521 0)
(1.00145 -0.00228824 0)
(0.995865 -0.00408286 0)
(0.993038 -0.000379904 0)
(0.9959 -0.000767071 0)
(0.997365 0.00244962 0)
(0.999433 0.000193512 0)
(0.9991 -0.0023219 0)
(0.997297 -0.0026083 0)
(0.996738 -0.00412268 0)
(0.995073 -0.00369266 0)
(0.992996 -0.00257676 0)
(0.99236 -0.00150104 0)
(0.992372 0.000597735 0)
(0.992501 0.00290074 0)
(0.993113 0.00433303 0)
(0.994256 0.00557394 0)
(0.995647 0.00685608 0)
(0.996797 0.00766134 0)
(0.99743 0.00819493 0)
(0.999772 -4.44482e-05 0)
(1.00141 -0.00238931 0)
(0.996023 -0.00378843 0)
(0.993233 -0.000393322 0)
(0.996089 -0.000743498 0)
(0.997468 0.00217379 0)
(0.999289 0.000187182 0)
(0.99904 -0.0023062 0)
(0.997274 -0.00245517 0)
(0.996748 -0.00388516 0)
(0.99525 -0.00356852 0)
(0.993221 -0.00230956 0)
(0.992656 -0.00130106 0)
(0.992787 0.000570534 0)
(0.992886 0.00284403 0)
(0.993407 0.004314 0)
(0.994544 0.00539729 0)
(0.995911 0.00654711 0)
(0.996989 0.00739276 0)
(0.997582 0.00794841 0)
(0.999752 4.42144e-05 0)
(1.00137 -0.0024768 0)
(0.996191 -0.00351977 0)
(0.993428 -0.000378904 0)
(0.996277 -0.00074082 0)
(0.997576 0.00191866 0)
(0.999149 0.000182907 0)
(0.998984 -0.00229403 0)
(0.997261 -0.0023036 0)
(0.996753 -0.00363066 0)
(0.995433 -0.00345956 0)
(0.993458 -0.00205648 0)
(0.992937 -0.00107355 0)
(0.993193 0.000548622 0)
(0.993287 0.00274713 0)
(0.993703 0.0042817 0)
(0.994809 0.0052606 0)
(0.996169 0.00624543 0)
(0.997193 0.00709675 0)
(0.99774 0.00767381 0)
(0.999733 0.000132082 0)
(1.00133 -0.00254932 0)
(0.996372 -0.00328086 0)
(0.993624 -0.000340162 0)
(0.996461 -0.000755819 0)
(0.997691 0.00167979 0)
(0.999013 0.000188782 0)
(0.998932 -0.00228314 0)
(0.997261 -0.00216303 0)
(0.996751 -0.00335379 0)
(0.99562 -0.00335666 0)
(0.993715 -0.00183484 0)
(0.993206 -0.000814633 0)
(0.993581 0.000550039 0)
(0.9937 0.00261555 0)
(0.994009 0.00421965 0)
(0.995053 0.00515292 0)
(0.996413 0.00597051 0)
(0.997405 0.00678569 0)
(0.997906 0.00738068 0)
(0.999716 0.000215728 0)
(1.0013 -0.00260341 0)
(0.996565 -0.00307036 0)
(0.993819 -0.000277015 0)
(0.996642 -0.000782542 0)
(0.997813 0.00144362 0)
(0.998883 0.000207886 0)
(0.998882 -0.00228251 0)
(0.997277 -0.00204135 0)
(0.996744 -0.00304281 0)
(0.995806 -0.00324493 0)
(0.993993 -0.00165504 0)
(0.993466 -0.000546357 0)
(0.993944 0.000585131 0)
(0.994121 0.00245665 0)
(0.994331 0.00412098 0)
(0.995283 0.00506072 0)
(0.996635 0.00572995 0)
(0.997619 0.00646739 0)
(0.998078 0.00708183 0)
(0.999701 0.000294414 0)
(1.00128 -0.00263466 0)
(0.996771 -0.00289302 0)
(0.994013 -0.000192793 0)
(0.996816 -0.000818211 0)
(0.997945 0.00121216 0)
(0.998757 0.00024614 0)
(0.998832 -0.00227333 0)
(0.997312 -0.00195153 0)
(0.996732 -0.00270132 0)
(0.995984 -0.00310904 0)
(0.994294 -0.00152909 0)
(0.993724 -0.0002768 0)
(0.994275 0.000670953 0)
(0.99454 0.00229292 0)
(0.994675 0.00397486 0)
(0.995505 0.00496698 0)
(0.996832 0.00553011 0)
(0.997828 0.00614787 0)
(0.998254 0.00677293 0)
(0.999688 0.00036586 0)
(1.00125 -0.00263989 0)
(0.996992 -0.0027494 0)
(0.994208 -9.2465e-05 0)
(0.996982 -0.000852982 0)
(0.998088 0.0009732 0)
(0.998639 0.000304633 0)
(0.998778 -0.00223829 0)
(0.99737 -0.00190231 0)
(0.996722 -0.00234702 0)
(0.996145 -0.00292632 0)
(0.994616 -0.00146371 0)
(0.993993 -2.74938e-05 0)
(0.994572 0.000813787 0)
(0.994942 0.00215571 0)
(0.995039 0.00377907 0)
(0.995733 0.00484589 0)
(0.997003 0.00537211 0)
(0.998022 0.00585181 0)
(0.998434 0.00644916 0)
(0.999679 0.000428893 0)
(1.00123 -0.00261585 0)
(0.997226 -0.00264027 0)
(0.994404 2.41125e-05 0)
(0.997137 -0.000878059 0)
(0.998243 0.000718292 0)
(0.998531 0.000375838 0)
(0.998717 -0.00217355 0)
(0.99745 -0.00189303 0)
(0.996722 -0.00199837 0)
(0.996283 -0.00268337 0)
(0.994952 -0.00143195 0)
(0.994283 0.000166692 0)
(0.99484 0.00099202 0)
(0.995315 0.00206658 0)
(0.995415 0.00355778 0)
(0.99598 0.00468109 0)
(0.997157 0.00522876 0)
(0.998191 0.00559987 0)
(0.998613 0.00611726 0)
(0.999672 0.000481998 0)
(1.00121 -0.00255895 0)
(0.997475 -0.00256639 0)
(0.994602 0.000146827 0)
(0.997277 -0.000886977 0)
(0.998412 0.00045276 0)
(0.998438 0.000450552 0)
(0.998645 -0.00206153 0)
(0.997552 -0.00192344 0)
(0.996741 -0.00167794 0)
(0.996394 -0.00237344 0)
(0.99529 -0.00140588 0)
(0.9946 0.000281844 0)
(0.995091 0.00117258 0)
(0.995649 0.00202754 0)
(0.99579 0.00333393 0)
(0.996249 0.00447444 0)
(0.997308 0.00506718 0)
(0.998333 0.0053926 0)
(0.998783 0.00580124 0)
(0.999669 0.000521875 0)
(1.00119 -0.00246832 0)
(0.997735 -0.00252163 0)
(0.994804 0.000264759 0)
(0.9974 -0.000867109 0)
(0.998593 0.000171656 0)
(0.998366 0.0005173 0)
(0.998558 -0.00188756 0)
(0.99767 -0.00197743 0)
(0.99679 -0.00141386 0)
(0.99648 -0.00200916 0)
(0.995614 -0.0013562 0)
(0.994945 0.000312712 0)
(0.995339 0.0013268 0)
(0.995943 0.00204757 0)
(0.996151 0.00313605 0)
(0.996534 0.004238 0)
(0.997471 0.00487344 0)
(0.998455 0.00520121 0)
(0.998934 0.0055194 0)
(0.99967 0.00054917 0)
(1.00116 -0.00234361 0)
(0.998006 -0.00250445 0)
(0.995014 0.000370154 0)
(0.997503 -0.000809771 0)
(0.998785 -0.000124281 0)
(0.998322 0.000561801 0)
(0.998454 -0.00164819 0)
(0.997795 -0.00202385 0)
(0.996878 -0.00122436 0)
(0.99655 -0.0016169 0)
(0.995908 -0.00125598 0)
(0.995312 0.000287336 0)
(0.995602 0.00143149 0)
(0.996204 0.00210709 0)
(0.996481 0.00298521 0)
(0.996827 0.00398742 0)
(0.997649 0.00465313 0)
(0.998572 0.00499841 0)
(0.999067 0.00526571 0)
(0.999675 0.00056233 0)
(1.00112 -0.00218576 0)
(0.998284 -0.00250785 0)
(0.995234 0.000452946 0)
(0.997582 -0.000708676 0)
(0.998983 -0.00042219 0)
(0.998317 0.000561361 0)
(0.998335 -0.00135398 0)
(0.997914 -0.00203975 0)
(0.99701 -0.00111265 0)
(0.996615 -0.0012276 0)
(0.996163 -0.00108939 0)
(0.995688 0.000239922 0)
(0.995889 0.00147543 0)
(0.996445 0.00216938 0)
(0.996774 0.00288638 0)
(0.997114 0.00374698 0)
(0.997842 0.00440769 0)
(0.998688 0.00478151 0)
(0.999184 0.00502429 0)
(0.999683 0.000559804 0)
(1.00108 -0.00199889 0)
(0.998565 -0.00252171 0)
(0.995468 0.00050462 0)
(0.997637 -0.00056401 0)
(0.99918 -0.000700893 0)
(0.998356 0.000502728 0)
(0.998209 -0.00102815 0)
(0.998015 -0.00199585 0)
(0.997182 -0.00107275 0)
(0.996693 -0.000874421 0)
(0.996375 -0.000856757 0)
(0.996056 0.000196501 0)
(0.996203 0.00144957 0)
(0.996681 0.00221479 0)
(0.997031 0.00283324 0)
(0.99738 0.0035438 0)
(0.998044 0.00414293 0)
(0.998814 0.0045455 0)
(0.999289 0.00479049 0)
(0.999696 0.000542546 0)
(1.00103 -0.00178621 0)
(0.998845 -0.00254017 0)
(0.99572 0.000517431 0)
(0.997667 -0.000378005 0)
(0.999365 -0.000940398 0)
(0.998444 0.000381643 0)
(0.998087 -0.000697702 0)
(0.998086 -0.00187234 0)
(0.997387 -0.00108221 0)
(0.996798 -0.000582144 0)
(0.996548 -0.000582712 0)
(0.996395 0.000185507 0)
(0.996539 0.00136172 0)
(0.99693 0.00222008 0)
(0.997261 0.00280717 0)
(0.997613 0.00339001 0)
(0.998242 0.00388734 0)
(0.998954 0.00427859 0)
(0.999387 0.00455815 0)
(0.999712 0.00051028 0)
(1.00097 -0.00155334 0)
(0.999118 -0.00254897 0)
(0.995993 0.000483192 0)
(0.997678 -0.000169683 0)
(0.999528 -0.00112175 0)
(0.99858 0.000204586 0)
(0.997982 -0.00038756 0)
(0.998122 -0.00166611 0)
(0.997611 -0.00110879 0)
(0.996942 -0.000362449 0)
(0.996693 -0.000292378 0)
(0.996692 0.000225196 0)
(0.996885 0.00125059 0)
(0.997204 0.00216934 0)
(0.99748 0.00278033 0)
(0.997812 0.00328172 0)
(0.998415 0.00367361 0)
(0.999104 0.00398801 0)
(0.999491 0.00430321 0)
(0.999731 0.00046575 0)
(1.0009 -0.00131314 0)
(0.999376 -0.00254022 0)
(0.996287 0.000404852 0)
(0.997674 4.48068e-05 0)
(0.999661 -0.00123048 0)
(0.99876 -2.55597e-05 0)
(0.99791 -0.000125487 0)
(0.99812 -0.00138714 0)
(0.997837 -0.00112103 0)
(0.997128 -0.000221257 0)
(0.996824 4.48138e-06 0)
(0.996941 0.000325303 0)
(0.997223 0.00114473 0)
(0.997502 0.00206317 0)
(0.997707 0.00272768 0)
(0.997987 0.00319833 0)
(0.998549 0.00351577 0)
(0.999239 0.00371691 0)
(0.999612 0.00400739 0)
(0.999754 0.000409646 0)
(1.00081 -0.0010693 0)
(0.999613 -0.00250777 0)
(0.996601 0.000282998 0)
(0.997663 0.000263117 0)
(0.999753 -0.00125549 0)
(0.998973 -0.000288027 0)
(0.997887 6.33329e-05 0)
(0.998086 -0.00106175 0)
(0.998046 -0.00109207 0)
(0.99736 -0.000148581 0)
(0.996962 0.000276592 0)
(0.997137 0.00048577 0)
(0.997532 0.00106908 0)
(0.99782 0.00191348 0)
(0.997952 0.00264104 0)
(0.998156 0.0031111 0)
(0.998648 0.00339504 0)
(0.999333 0.00350535 0)
(0.999736 0.00369596 0)
(0.999778 0.000346226 0)
(1.00072 -0.000835278 0)
(0.999825 -0.00243781 0)
(0.996935 0.000125536 0)
(0.997655 0.000464428 0)
(0.999798 -0.00119767 0)
(0.999207 -0.000547047 0)
(0.997922 0.000172771 0)
(0.998034 -0.000716532 0)
(0.998224 -0.00100875 0)
(0.997627 -0.000126029 0)
(0.997122 0.000491213 0)
(0.997289 0.000676791 0)
(0.997791 0.00104771 0)
(0.998142 0.00174385 0)
(0.998223 0.00251205 0)
(0.998331 0.00301644 0)
(0.99873 0.0032835 0)
(0.999378 0.00335202 0)
(0.999832 0.00342239 0)
(0.999805 0.000279001 0)
(1.00063 -0.000617584 0)
(1.00001 -0.00233273 0)
(0.997283 -4.85654e-05 0)
(0.997659 0.000627018 0)
(0.999796 -0.00106126 0)
(0.999446 -0.000776544 0)
(0.998019 0.000195703 0)
(0.997976 -0.000376818 0)
(0.99836 -0.000868773 0)
(0.997914 -0.000135934 0)
(0.997316 0.000645356 0)
(0.997415 0.000874052 0)
(0.997992 0.00108122 0)
(0.998448 0.00159534 0)
(0.998524 0.00232505 0)
(0.998523 0.00290575 0)
(0.998807 0.00317509 0)
(0.999388 0.00322714 0)
(0.999877 0.0032136 0)
(0.999832 0.000209353 0)
(1.00052 -0.000419489 0)
(1.00015 -0.00218935 0)
(0.99764 -0.000236652 0)
(0.997683 0.000737324 0)
(0.999749 -0.000865531 0)
(0.999669 -0.000953988 0)
(0.998178 0.000144037 0)
(0.997933 -7.5887e-05 0)
(0.998449 -0.000666644 0)
(0.998206 -0.000154122 0)
(0.997552 0.00073275 0)
(0.997531 0.00106796 0)
(0.998137 0.00116133 0)
(0.998708 0.00149221 0)
(0.99884 0.00210832 0)
(0.998753 0.0027431 0)
(0.99889 0.00307399 0)
(0.999377 0.00311332 0)
(0.99987 0.00305595 0)
(0.99986 0.000144847 0)
(1.00042 -0.000254752 0)
(1.00026 -0.00200696 0)
(0.997997 -0.000428946 0)
(0.997737 0.000785554 0)
(0.999665 -0.000633883 0)
(0.999864 -0.00106038 0)
(0.998391 3.89447e-05 0)
(0.997921 0.000167983 0)
(0.998493 -0.000424913 0)
(0.998479 -0.000160585 0)
(0.99783 0.000740906 0)
(0.997656 0.00122992 0)
(0.99823 0.00128101 0)
(0.998909 0.00143262 0)
(0.999144 0.00190976 0)
(0.999025 0.00251797 0)
(0.999003 0.0029458 0)
(0.999354 0.00301602 0)
(0.999824 0.00292403 0)
(0.999887 8.48728e-05 0)
(1.00032 -0.000119504 0)
(1.00033 -0.00179744 0)
(0.998345 -0.000605758 0)
(0.997824 0.000771583 0)
(0.999555 -0.000390244 0)
(1.00002 -0.00107962 0)
(0.998644 -0.000108575 0)
(0.997954 0.000346473 0)
(0.998499 -0.000168005 0)
(0.998715 -0.000131763 0)
(0.998143 0.000692819 0)
(0.997817 0.00133217 0)
(0.998286 0.00142285 0)
(0.999044 0.00142271 0)
(0.999407 0.00174202 0)
(0.999319 0.00226679 0)
(0.99917 0.00274996 0)
(0.99934 0.00291997 0)
(0.999744 0.00281335 0)
(0.999913 3.38241e-05 0)
(1.00023 -2.0298e-05 0)
(1.00036 -0.00156602 0)
(0.998673 -0.000754495 0)
(0.997948 0.000705223 0)
(0.999435 -0.000156071 0)
(1.00012 -0.00101823 0)
(0.998921 -0.000265036 0)
(0.998042 0.000440475 0)
(0.998484 9.69695e-05 0)
(0.9989 -6.46528e-05 0)
(0.998472 0.000612504 0)
(0.998025 0.00136105 0)
(0.99833 0.00155215 0)
(0.999109 0.00146759 0)
(0.999611 0.00160977 0)
(0.999604 0.00203048 0)
(0.999394 0.00249273 0)
(0.999371 0.00278006 0)
(0.999649 0.00272773 0)
(0.999935 -5.93987e-06 0)
(1.00015 4.69412e-05 0)
(1.00037 -0.00132709 0)
(0.998973 -0.000861154 0)
(0.998107 0.000594165 0)
(0.999319 5.36647e-05 0)
(1.00016 -0.000895697 0)
(0.999198 -0.000390518 0)
(0.998192 0.000449289 0)
(0.998465 0.000335486 0)
(0.999023 6.18919e-05 0)
(0.998795 0.000524047 0)
(0.998285 0.0013103 0)
(0.99839 0.00164284 0)
(0.999117 0.00154961 0)
(0.999743 0.00152509 0)
(0.999852 0.00181902 0)
(0.999646 0.00221624 0)
(0.999479 0.0025667 0)
(0.999578 0.00263605 0)
(0.999955 -3.63179e-05 0)
(1.00009 8.85105e-05 0)
(1.00034 -0.00109325 0)
(0.999237 -0.000920047 0)
(0.998296 0.000453623 0)
(0.999221 0.000224455 0)
(1.00016 -0.000723269 0)
(0.999455 -0.000477928 0)
(0.998392 0.000404746 0)
(0.998471 0.000521696 0)
(0.999088 0.000230152 0)
(0.999077 0.000473205 0)
(0.998589 0.00118573 0)
(0.998495 0.00166957 0)
(0.999088 0.00163814 0)
(0.999794 0.00150129 0)
(1.00004 0.00163908 0)
(0.999894 0.0019597 0)
(0.999657 0.00230038 0)
(0.999579 0.00249273 0)
(0.999972 -5.62778e-05 0)
(1.00003 0.000103217 0)
(1.0003 -0.000870761 0)
(0.999462 -0.000931943 0)
(0.998506 0.000302455 0)
(0.999151 0.000345996 0)
(1.00012 -0.000523737 0)
(0.999678 -0.000513371 0)
(0.998636 0.000323404 0)
(0.99851 0.000652811 0)
(0.999113 0.000398228 0)
(0.999296 0.000468727 0)
(0.998908 0.00103995 0)
(0.998665 0.00160277 0)
(0.99906 0.00170666 0)
(0.999771 0.00152889 0)
(1.00016 0.00151408 0)
(1.00011 0.00173219 0)
(0.999871 0.00202796 0)
(0.999673 0.00228309 0)
(0.999986 -6.57358e-05 0)
(0.999991 9.93719e-05 0)
(1.00025 -0.000669147 0)
(0.999644 -0.000898498 0)
(0.99873 0.000151955 0)
(0.999116 0.000415103 0)
(1.00004 -0.000324685 0)
(0.999853 -0.000485196 0)
(0.998902 0.000220733 0)
(0.998596 0.000714079 0)
(0.999111 0.0005662 0)
(0.999452 0.000502629 0)
(0.999207 0.000918918 0)
(0.998892 0.00146526 0)
(0.999076 0.00171272 0)
(0.999698 0.00158331 0)
(1.0002 0.00145925 0)
(1.00027 0.00155196 0)
(1.00009 0.00178671 0)
(0.99984 0.00204073 0)