/*--------------------------------*- C++ -*----------------------------------*\
| =========                 |                                                 |
| \\      /  F ield         | OpenFOAM: The Open Source CFD Toolbox           |
|  \\    /   O peration     | Version:  2106                                  |
|   \\  /    A nd           | Website:  www.openfoam.com                      |
|    \\/     M anipulation  |                                                 |
\*---------------------------------------------------------------------------*/
FoamFile
{
    version     2.0;
    format      ascii;
    arch        "LSB;label=32;scalar=64";
    class       volVectorField;
    location    "0.195";
    object      U;
}
// * * * * * * * * * * * * * * * * * * * * * * * * * * * * * * * * * * * * * //

dimensions      [0 1 -1 0 0 0 0];

internalField   nonuniform List<vector> 
9600
(
(0.872715 -0.000484293 0)
(1.1302 -0.0017316 0)
(0.88206 -0.000981489 0)
(1.12798 0.00367711 0)
(0.873386 0.00751668 0)
(1.11241 0.00559741 0)
(0.872477 -0.00412806 0)
(1.09981 -0.0120705 0)
(0.87386 -0.0105341 0)
(1.13435 -0.0147059 0)
(0.820423 -0.00627001 0)
(1.12847 0.00290591 0)
(0.884201 0.00109207 0)
(1.10729 0.00651682 0)
(0.887653 0.00713601 0)
(1.09812 0.00924304 0)
(0.88423 0.0111966 0)
(1.08937 -0.00153716 0)
(0.864312 0.00695048 0)
(1.09946 -0.00880852 0)
(0.882492 -0.000571027 0)
(1.11931 -0.00166414 0)
(0.892789 -0.00112289 0)
(1.11702 0.00387089 0)
(0.889206 0.00748159 0)
(1.09375 0.00577704 0)
(0.900142 -0.00414984 0)
(1.07682 -0.0118415 0)
(0.897751 -0.0113128 0)
(1.10861 -0.013628 0)
(0.847996 -0.00644131 0)
(1.1004 0.00210515 0)
(0.916055 0.00116384 0)
(1.07467 0.00662943 0)
(0.931646 0.00727949 0)
(1.04821 0.00931752 0)
(0.951198 0.0114817 0)
(1.01482 -0.00140878 0)
(0.961774 0.00770816 0)
(0.988501 -0.0102788 0)
(0.900728 -0.000641938 0)
(1.09894 -0.00162145 0)
(0.913269 -0.0012319 0)
(1.09511 0.00404864 0)
(0.916758 0.00755001 0)
(1.06616 0.00581227 0)
(0.93424 -0.0041086 0)
(1.04797 -0.0116978 0)
(0.930341 -0.011786 0)
(1.0716 -0.0128548 0)
(0.89428 -0.00652937 0)
(1.0563 0.00116216 0)
(0.957964 0.00151101 0)
(1.03403 0.00643862 0)
(0.971974 0.00776947 0)
(1.00967 0.00900137 0)
(0.985309 0.0119778 0)
(0.993731 -0.00125528 0)
(0.98488 0.00723397 0)
(0.988417 -0.0071035 0)
(0.924081 -0.000675574 0)
(1.07304 -0.00163251 0)
(0.93823 -0.00127749 0)
(1.06767 0.00411035 0)
(0.946216 0.00770658 0)
(1.03956 0.00572491 0)
(0.963795 -0.00398698 0)
(1.02272 -0.0115898 0)
(0.958873 -0.0120495 0)
(1.03626 -0.0124446 0)
(0.93746 -0.00635526 0)
(1.01942 0.000329076 0)
(0.98534 0.00176045 0)
(1.00999 0.00622473 0)
(0.989642 0.00818971 0)
(0.996896 0.00875234 0)
(0.993888 0.0122212 0)
(0.994829 -0.00122619 0)
(0.98948 0.00747974 0)
(0.992026 -0.00592601 0)
(0.948059 -0.000676662 0)
(1.04714 -0.00168417 0)
(0.961371 -0.00127902 0)
(1.04148 0.00409418 0)
(0.97005 0.00787547 0)
(1.02013 0.00560648 0)
(0.98402 -0.00383232 0)
(1.00667 -0.0115017 0)
(0.976848 -0.0121662 0)
(1.01163 -0.0122403 0)
(0.965246 -0.00610651 0)
(0.999734 -0.000307705 0)
(0.995779 0.00179015 0)
(1.00121 0.00616187 0)
(0.995525 0.0084503 0)
(0.995644 0.00866516 0)
(0.997572 0.0121742 0)
(0.998035 -0.000997064 0)
(0.993513 0.00750746 0)
(0.993499 -0.00496637 0)
(0.968691 -0.000654855 0)
(1.02594 -0.0017504 0)
(0.978627 -0.00125625 0)
(1.02128 0.00405391 0)
(0.985615 0.00799845 0)
(1.00934 0.00549944 0)
(0.995688 -0.00368572 0)
(0.9996 -0.0114002 0)
(0.985638 -0.012156 0)
(0.99827 -0.0121538 0)
(0.978873 -0.00594056 0)
(0.99286 -0.000725749 0)
(0.997628 0.00170677 0)
(0.998529 0.0061253 0)
(0.998188 0.00860511 0)
(0.997523 0.00857632 0)
(1.00087 0.0120335 0)
(1.00109 -0.00070411 0)
(0.996873 0.00738741 0)
(0.995448 -0.00374024 0)
(0.983821 -0.000622679 0)
(1.01152 -0.00180613 0)
(0.989147 -0.00122234 0)
(1.00836 0.00401361 0)
(0.994156 0.00804671 0)
(1.00522 0.00540793 0)
(1.00203 -0.0035569 0)
(0.998114 -0.0112671 0)
(0.989537 -0.0120515 0)
(0.992191 -0.0121371 0)
(0.984303 -0.00586051 0)
(0.991661 -0.00100079 0)
(0.997268 0.00159266 0)
(0.997459 0.0060274 0)
(0.999783 0.00865586 0)
(0.999926 0.00844888 0)
(1.00353 0.0118552 0)
(1.00354 -0.000346769 0)
(0.999124 0.00725305 0)
(0.997178 -0.00237564 0)
(0.993325 -0.000590672 0)
(1.00333 -0.00183835 0)
(0.994349 -0.00118613 0)
(1.00138 0.00397425 0)
(0.998342 0.00802009 0)
(1.00475 0.00531951 0)
(1.00576 -0.00343844 0)
(0.999029 -0.0111057 0)
(0.991705 -0.0118772 0)
(0.989649 -0.0121399 0)
(0.986136 -0.00583465 0)
(0.992017 -0.00122316 0)
(0.996928 0.00148007 0)
(0.996995 0.00587688 0)
(1.00072 0.0086204 0)
(1.00187 0.00830482 0)
(1.0053 0.0116534 0)
(1.00504 9.53019e-05 0)
(1.00039 0.00710702 0)
(0.998173 -0.00098379 0)
(0.99842 -0.000564285 0)
(0.999495 -0.00184631 0)
(0.996347 -0.00114986 0)
(0.998122 0.00392891 0)
(1.00033 0.00793435 0)
(1.00563 0.00522184 0)
(1.0082 -0.00332198 0)
(1.00057 -0.0109242 0)
(0.993442 -0.011645 0)
(0.988649 -0.0121276 0)
(0.98663 -0.00584877 0)
(0.992365 -0.00143136 0)
(0.996686 0.00137248 0)
(0.996737 0.00570214 0)
(1.0011 0.00852778 0)
(1.00292 0.00815831 0)
(1.00606 0.011432 0)
(1.00549 0.000616875 0)
(1.00078 0.00695461 0)
(0.998421 0.000352562 0)
(1.00071 -0.000544157 0)
(0.998089 -0.00183578 0)
(0.996848 -0.00111058 0)
(0.996803 0.00387253 0)
(1.00124 0.00780778 0)
(1.00658 0.00510872 0)
(1.00975 -0.00320422 0)
(1.00201 -0.0107304 0)
(0.994982 -0.0113665 0)
(0.988437 -0.012083 0)
(0.986627 -0.00588347 0)
(0.992217 -0.00162972 0)
(0.996091 0.00126058 0)
(0.996159 0.00552152 0)
(1.00075 0.00839147 0)
(1.0029 0.0080226 0)
(1.00571 0.0111935 0)
(1.00496 0.00120686 0)
(1.00036 0.00679807 0)
(0.998047 0.00163467 0)
(1.0015 -0.000528247 0)
(0.997792 -0.00181437 0)
(0.996826 -0.00106635 0)
(0.996372 0.00380511 0)
(1.0015 0.00765628 0)
(1.0071 0.00497941 0)
(1.01055 -0.00308658 0)
(1.00313 -0.0105318 0)
(0.996231 -0.0110552 0)
(0.988755 -0.011998 0)
(0.986423 -0.00591482 0)
(0.991487 -0.0018078 0)
(0.994868 0.00114261 0)
(0.994875 0.00534666 0)
(0.999464 0.00821774 0)
(1.00176 0.00791027 0)
(1.00429 0.0109422 0)
(1.00361 0.00182862 0)
(0.999312 0.00663527 0)
(0.997231 0.00283657 0)
(1.00165 -0.000514617 0)
(0.997905 -0.0017878 0)
(0.9967 -0.00101697 0)
(0.996329 0.00373053 0)
(1.00134 0.00749249 0)
(1.00716 0.00483595 0)
(1.01073 -0.0029725 0)
(1.0039 -0.0103338 0)
(0.997099 -0.0107262 0)
(0.989429 -0.0118707 0)
(0.986172 -0.0059237 0)
(0.990338 -0.001952 0)
(0.993116 0.0010234 0)
(0.992905 0.00518681 0)
(0.997336 0.00801612 0)
(0.999737 0.0078219 0)
(1.0021 0.0106673 0)
(1.00176 0.00246162 0)
(0.997943 0.00647691 0)
(0.996206 0.00387937 0)
(1.00156 -0.00050213 0)
(0.998116 -0.00175913 0)
(0.996605 -0.000963008 0)
(0.99645 0.00365313 0)
(1.00098 0.00732483 0)
(1.00693 0.00468112 0)
(1.01054 -0.00286449 0)
(1.00437 -0.0101374 0)
(0.997602 -0.0103935 0)
(0.990249 -0.0117059 0)
(0.985988 -0.00589521 0)
(0.989081 -0.0020463 0)
(0.991212 0.000906941 0)
(0.990647 0.00505352 0)
(0.994814 0.00779511 0)
(0.99734 0.00774339 0)
(0.99965 0.0103632 0)
(0.999808 0.00307336 0)
(0.996581 0.00634311 0)
(0.995216 0.00474689 0)
(1.00144 -0.00049019 0)
(0.998304 -0.00172959 0)
(0.996567 -0.000905125 0)
(0.996626 0.00357514 0)
(1.00062 0.0071576 0)
(1.0066 0.00451749 0)
(1.01017 -0.00276226 0)
(1.0046 -0.00994159 0)
(0.997831 -0.0100656 0)
(0.991018 -0.0115101 0)
(0.985935 -0.00582947 0)
(0.988023 -0.00207962 0)
(0.98957 0.000794752 0)
(0.988604 0.00495268 0)
(0.992463 0.00755599 0)
(0.995128 0.00766968 0)
(0.997435 0.0100357 0)
(0.998113 0.00361361 0)
(0.995483 0.00624841 0)
(0.994436 0.00543072 0)
(1.00134 -0.000478372 0)
(0.998436 -0.00169969 0)
(0.996578 -0.000844107 0)
(0.996804 0.00349658 0)
(1.00034 0.00699195 0)
(1.00627 0.00434785 0)
(1.00978 -0.00266469 0)
(1.00466 -0.00974249 0)
(0.997901 -0.00974671 0)
(0.991622 -0.0112861 0)
(0.986017 -0.00574153 0)
(0.987329 -0.00205654 0)
(0.988438 0.000687693 0)
(0.987118 0.00488062 0)
(0.990682 0.00730293 0)
(0.993467 0.00758859 0)
(0.995756 0.00970404 0)
(0.996857 0.00407581 0)
(0.994757 0.00618659 0)
(0.993936 0.0059564 0)
(1.00127 -0.000466353 0)
(0.998517 -0.00166971 0)
(0.996624 -0.000780563 0)
(0.996962 0.00341661 0)
(1.00017 0.00682715 0)
(1.00599 0.0041748 0)
(1.00941 -0.00257044 0)
(1.00462 -0.00953641 0)
(0.997904 -0.00943739 0)
(0.992042 -0.0110375 0)
(0.986201 -0.00563976 0)
(0.987003 -0.0019862 0)
(0.98784 0.000582394 0)
(0.986264 0.00483483 0)
(0.989578 0.00704839 0)
(0.992447 0.00747992 0)
(0.994662 0.00939003 0)
(0.996045 0.00446391 0)
(0.994381 0.00615459 0)
(0.993691 0.00636709 0)
(1.00123 -0.000453963 0)
(0.998564 -0.00163975 0)
(0.996692 -0.000714945 0)
(0.9971 0.00333452 0)
(1.00008 0.00666218 0)
(1.00574 0.0039995 0)
(1.00908 -0.00247826 0)
(1.00453 -0.00932095 0)
(0.997887 -0.00913853 0)
(0.992321 -0.0107605 0)
(0.986446 -0.00553855 0)
(0.986951 -0.00187665 0)
(0.987656 0.000472364 0)
(0.985922 0.00480835 0)
(0.989034 0.00679742 0)
(0.99195 0.00734523 0)
(0.994033 0.00910639 0)
(0.995571 0.00478358 0)
(0.99426 0.00614167 0)
(0.993628 0.0066945 0)
(1.0012 -0.000441137 0)
(0.998593 -0.00160989 0)
(0.996774 -0.000647465 0)
(0.997224 0.0032498 0)
(1.00003 0.0064962 0)
(1.00552 0.00382385 0)
(1.00876 -0.00238919 0)
(1.0044 -0.00909336 0)
(0.997871 -0.00884969 0)
(0.992516 -0.0104558 0)
(0.986724 -0.00544824 0)
(0.987062 -0.00173988 0)
(0.987729 0.000358625 0)
(0.985909 0.00478161 0)
(0.988851 0.00656563 0)
(0.991792 0.00717905 0)
(0.993701 0.00885848 0)
(0.995303 0.00505516 0)
(0.994293 0.00613271 0)
(0.993675 0.00696093 0)
(1.00117 -0.000427747 0)
(0.998614 -0.00158039 0)
(0.996863 -0.00057819 0)
(0.997342 0.00316239 0)
(0.999997 0.00632875 0)
(1.0053 0.00364985 0)
(1.00846 -0.00230394 0)
(1.00426 -0.00885145 0)
(0.997859 -0.00857199 0)
(0.992669 -0.0101259 0)
(0.98702 -0.00537003 0)
(0.987254 -0.00158345 0)
(0.987935 0.000248613 0)
(0.986074 0.00474033 0)
(0.988858 0.00637031 0)
(0.991815 0.00697409 0)
(0.993533 0.00864079 0)
(0.995142 0.00529404 0)
(0.994405 0.0061107 0)
(0.993782 0.00717193 0)
(1.00115 -0.000413799 0)
(0.998631 -0.00155118 0)
(0.996957 -0.000507951 0)
(0.997459 0.00307309 0)
(0.999977 0.0061587 0)
(1.00509 0.00347993 0)
(1.00816 -0.00222497 0)
(1.00412 -0.00859144 0)
(0.997849 -0.0083096 0)
(0.992807 -0.00976918 0)
(0.987328 -0.00530382 0)
(0.987481 -0.00141436 0)
(0.988201 0.000149278 0)
(0.986323 0.00467348 0)
(0.988949 0.00621269 0)
(0.991923 0.00674539 0)
(0.99345 0.00844173 0)
(0.995027 0.00551498 0)
(0.994553 0.00607006 0)
(0.993919 0.00732709 0)
(1.00112 -0.000399354 0)
(0.998648 -0.00152252 0)
(0.997053 -0.000436727 0)
(0.997575 0.00298203 0)
(0.999959 0.00598552 0)
(1.00488 0.0033146 0)
(1.00786 -0.00215398 0)
(1.00396 -0.00831346 0)
(0.997842 -0.00806034 0)
(0.992938 -0.00939023 0)
(0.987646 -0.00524365 0)
(0.987724 -0.00124712 0)
(0.988493 6.57279e-05 0)
(0.986613 0.00457177 0)
(0.989073 0.00609204 0)
(0.992065 0.00650909 0)
(0.993414 0.00824135 0)
(0.994932 0.00573399 0)
(0.994714 0.00601944 0)
(0.994077 0.00742964 0)
(1.0011 -0.00038439 0)
(0.998665 -0.00149454 0)
(0.997151 -0.000364924 0)
(0.997693 0.00288987 0)
(0.999943 0.00580859 0)
(1.00466 0.00315565 0)
(1.00755 -0.00209218 0)
(1.00381 -0.00801852 0)
(0.997836 -0.00782093 0)
(0.993068 -0.00899522 0)
(0.987974 -0.00518302 0)
(0.987976 -0.0010827 0)
(0.988794 9.42468e-06 0)
(0.986927 0.00443674 0)
(0.98921 0.00600089 0)
(0.992222 0.00627423 0)
(0.993413 0.0080255 0)
(0.994846 0.00594967 0)
(0.994877 0.00596328 0)
(0.994253 0.0074728 0)
(1.00108 -0.00036888 0)
(0.998684 -0.00146707 0)
(0.99725 -0.000293999 0)
(0.997812 0.00279885 0)
(0.999927 0.0056266 0)
(1.00445 0.0030071 0)
(1.00725 -0.00204239 0)
(1.00366 -0.00770483 0)
(0.997832 -0.00759342 0)
(0.993196 -0.00858393 0)
(0.988309 -0.00511887 0)
(0.988235 -0.000931408 0)
(0.989098 -6.56849e-06 0)
(0.987261 0.0042707 0)
(0.989353 0.00593043 0)
(0.992384 0.00605337 0)
(0.993444 0.00779311 0)
(0.994769 0.00615507 0)
(0.995035 0.0059123 0)
(0.994446 0.00745083 0)
(1.00106 -0.000353238 0)
(0.998705 -0.00143926 0)
(0.997351 -0.000225383 0)
(0.997931 0.00270958 0)
(0.99991 0.00544051 0)
(1.00423 0.00286946 0)
(1.00695 -0.00200454 0)
(1.0035 -0.00737525 0)
(0.99783 -0.00737208 0)
(0.993325 -0.00816365 0)
(0.988651 -0.00504245 0)
(0.988503 -0.000806978 0)
(0.989403 1.22356e-05 0)
(0.987611 0.00408387 0)
(0.989504 0.00586861 0)
(0.992548 0.00585574 0)
(0.993505 0.0075485 0)
(0.9947 0.00633967 0)
(0.995183 0.0058788 0)
(0.994659 0.00736404 0)
(1.00103 -0.000337307 0)
(0.998728 -0.00141156 0)
(0.997453 -0.000159575 0)
(0.998052 0.00262239 0)
(0.999893 0.00524794 0)
(1.00402 0.00274236 0)
(1.00665 -0.00197554 0)
(1.00334 -0.00703576 0)
(0.997831 -0.00714944 0)
(0.993454 -0.0077474 0)
(0.988997 -0.00493814 0)
(0.98878 -0.000714014 0)
(0.989707 5.84237e-05 0)
(0.987976 0.00388866 0)
(0.989664 0.00579867 0)
(0.99271 0.00568448 0)
(0.993597 0.00729292 0)
(0.994644 0.00649134 0)
(0.995316 0.00587164 0)
(0.994889 0.00722041 0)
(1.00101 -0.000321358 0)
(0.998753 -0.00138292 0)
(0.997558 -9.62943e-05 0)
(0.998173 0.00254047 0)
(0.999876 0.00504642 0)
(1.0038 0.00262815 0)
(1.00635 -0.00195589 0)
(1.00319 -0.00668838 0)
(0.997835 -0.00692383 0)
(0.993585 -0.00734297 0)
(0.989346 -0.00479999 0)
(0.989067 -0.000649819 0)
(0.99001 0.000132289 0)
(0.988354 0.00369331 0)
(0.989835 0.00571753 0)
(0.992872 0.00553958 0)
(0.993718 0.00703071 0)
(0.994605 0.00660482 0)
(0.99543 0.00589184 0)
(0.995133 0.00703418 0)
(1.00099 -0.000305928 0)
(0.998781 -0.00135109 0)
(0.997665 -3.76645e-05 0)
(0.998295 0.00246351 0)
(0.999858 0.00483918 0)
(1.00358 0.00252702 0)
(1.00605 -0.00194239 0)
(1.00303 -0.0063358 0)
(0.997841 -0.00669159 0)
(0.99372 -0.00695727 0)
(0.989698 -0.00463204 0)
(0.989364 -0.000600664 0)
(0.990313 0.000221104 0)
(0.988742 0.00351239 0)
(0.990019 0.00563003 0)
(0.99303 0.00541535 0)
(0.993864 0.00676623 0)
(0.994587 0.00668206 0)
(0.995524 0.00593834 0)
(0.995384 0.00682445 0)
(1.00096 -0.000291081 0)
(0.99881 -0.00131854 0)
(0.997775 1.52249e-05 0)
(0.998418 0.00239277 0)
(0.999841 0.00462464 0)
(1.00335 0.00243702 0)
(1.00576 -0.00193218 0)
(1.00288 -0.00598847 0)
(0.99785 -0.00643932 0)
(0.993859 -0.0065918 0)
(0.990051 -0.00444147 0)
(0.989671 -0.000562041 0)
(0.990617 0.000304979 0)
(0.98914 0.00334899 0)
(0.990215 0.00553679 0)
(0.993186 0.00530707 0)
(0.994035 0.00649796 0)
(0.994596 0.00671983 0)
(0.995597 0.00600612 0)
(0.995635 0.00660659 0)
(1.00094 -0.000276954 0)
(0.998841 -0.00128318 0)
(0.997888 5.80194e-05 0)
(0.998542 0.00233232 0)
(0.999825 0.00440344 0)
(1.00313 0.00235428 0)
(1.00547 -0.00192226 0)
(1.00273 -0.00565133 0)
(0.99786 -0.00616286 0)
(0.994002 -0.00624469 0)
(0.990406 -0.00423363 0)
(0.989987 -0.000531178 0)
(0.990923 0.000380591 0)
(0.989546 0.00319707 0)
(0.990426 0.00543754 0)
(0.993335 0.0052148 0)
(0.994227 0.00622297 0)
(0.994636 0.00670318 0)
(0.99565 0.00608216 0)
(0.995877 0.0063938 0)
(1.00091 -0.000263843 0)
(0.998873 -0.00124265 0)
(0.998004 8.99712e-05 0)
(0.998666 0.00227975 0)
(0.999811 0.00417954 0)
(1.00291 0.00227866 0)
(1.00519 -0.00189977 0)
(1.00259 -0.00533239 0)
(0.997872 -0.00586546 0)
(0.99415 -0.00590961 0)
(0.990763 -0.00401358 0)
(0.99031 -0.000492565 0)
(0.991232 0.000460326 0)
(0.989961 0.00304826 0)
(0.990651 0.00532739 0)
(0.993478 0.00514167 0)
(0.994435 0.00595459 0)
(0.994712 0.00663305 0)
(0.995689 0.00616173 0)
(0.996098 0.00621377 0)
(1.00089 -0.000252786 0)
(0.998907 -0.00119632 0)
(0.998122 0.000113135 0)
(0.99879 0.00223362 0)
(0.999798 0.00395252 0)
(1.00269 0.00220983 0)
(1.0049 -0.00186602 0)
(1.00245 -0.00503904 0)
(0.997886 -0.00554677 0)
(0.9943 -0.00558498 0)
(0.991123 -0.00378479 0)
(0.990643 -0.000434587 0)
(0.991541 0.000543714 0)
(0.990383 0.00290509 0)
(0.990894 0.0052092 0)
(0.993615 0.00509058 0)
(0.994653 0.0057061 0)
(0.994825 0.00650549 0)
(0.995722 0.00621878 0)
(0.99629 0.00607463 0)
(1.00087 -0.000244301 0)
(0.998941 -0.00114271 0)
(0.998243 0.000124682 0)
(0.998915 0.00219589 0)
(0.999788 0.00372801 0)
(1.00247 0.00213862 0)
(1.00462 -0.00181769 0)
(1.00232 -0.00476786 0)
(0.997904 -0.00521498 0)
(0.994453 -0.00526301 0)
(0.991487 -0.00356851 0)
(0.990983 -0.00037439 0)
(0.991852 0.000629814 0)
(0.990811 0.00277254 0)
(0.991156 0.00507489 0)
(0.993747 0.00504748 0)
(0.994871 0.0054915 0)
(0.994972 0.00633427 0)
(0.995759 0.00623513 0)
(0.996448 0.0059751 0)
(1.00084 -0.000237391 0)
(0.998977 -0.00108318 0)
(0.998366 0.000123811 0)
(0.999039 0.00216227 0)
(0.99978 0.00351231 0)
(1.00225 0.00206183 0)
(1.00435 -0.00174494 0)
(1.0022 -0.00451915 0)
(0.997928 -0.00487887 0)
(0.994607 -0.00493413 0)
(0.991853 -0.00336603 0)
(0.991335 -0.000307205 0)
(0.992163 0.000728268 0)
(0.991241 0.00264674 0)
(0.991439 0.00491885 0)
(0.99388 0.005 0)
(0.995087 0.00531146 0)
(0.995147 0.00614569 0)
(0.995809 0.00620399 0)
(0.996572 0.0059022 0)
(1.00082 -0.000233722 0)
(0.999013 -0.00101301 0)
(0.998491 0.000109172 0)
(0.999163 0.00212757 0)
(0.999772 0.00330737 0)
(1.00204 0.00197451 0)
(1.00408 -0.00165043 0)
(1.00209 -0.00428893 0)
(0.997959 -0.00454541 0)
(0.99476 -0.00458601 0)
(0.992222 -0.00316256 0)
(0.991698 -0.000236688 0)
(0.992475 0.000846432 0)
(0.991672 0.00253498 0)
(0.991743 0.0047464 0)
(0.994018 0.00495214 0)
(0.995299 0.00515272 0)
(0.995345 0.00595739 0)
(0.995875 0.00613434 0)
(0.996667 0.00583609 0)
(1.0008 -0.000233868 0)
(0.999049 -0.000933847 0)
(0.998618 8.66792e-05 0)
(0.999287 0.00209041 0)
(0.999765 0.00311584 0)
(1.00184 0.00187811 0)
(1.00381 -0.00153769 0)
(1.00199 -0.00406312 0)
(0.998001 -0.00422529 0)
(0.994914 -0.00421967 0)
(0.992588 -0.00295324 0)
(0.992075 -0.000185625 0)
(0.992789 0.000969616 0)
(0.992097 0.0024551 0)
(0.992068 0.00455417 0)
(0.994165 0.00489306 0)
(0.995507 0.00500583 0)
(0.99556 0.00576435 0)
(0.995959 0.00604442 0)
(0.996733 0.00577843 0)
(1.00077 -0.000236683 0)
(0.999084 -0.000846302 0)
(0.998747 5.62389e-05 0)
(0.999412 0.00204474 0)
(0.999757 0.00294474 0)
(1.00164 0.00177112 0)
(1.00355 -0.00140827 0)
(1.00189 -0.00383528 0)
(0.998054 -0.00392946 0)
(0.995069 -0.00385117 0)
(0.992949 -0.00273982 0)
(0.992464 -0.00014899 0)
(0.993109 0.0010786 0)
(0.992514 0.00241442 0)
(0.992407 0.00435372 0)
(0.994323 0.00480277 0)
(0.995709 0.00487388 0)
(0.995792 0.00556088 0)
(0.996066 0.00592467 0)
(0.996774 0.00573729 0)
(1.00075 -0.000243979 0)
(0.999118 -0.0007491 0)
(0.998875 1.95417e-05 0)
(0.999538 0.00198621 0)
(0.999749 0.00279982 0)
(1.00145 0.00165128 0)
(1.00329 -0.00127339 0)
(1.0018 -0.00360016 0)
(0.998119 -0.00366167 0)
(0.995228 -0.0034819 0)
(0.993302 -0.00251087 0)
(0.992862 -0.000115986 0)
(0.993439 0.00117013 0)
(0.992924 0.00240115 0)
(0.992756 0.00416931 0)
(0.994497 0.00467853 0)
(0.995908 0.00474768 0)
(0.996034 0.00536465 0)
(0.996202 0.00576441 0)
(0.996801 0.00569936 0)
(1.00073 -0.000253943 0)
(0.999149 -0.000645872 0)
(0.999002 -1.55413e-05 0)
(0.999666 0.00191342 0)
(0.99974 0.00268 0)
(1.00127 0.00152772 0)
(1.00305 -0.00114509 0)
(1.00171 -0.00334723 0)
(0.998198 -0.00341641 0)
(0.995394 -0.00312313 0)
(0.993647 -0.00225208 0)
(0.993266 -8.29482e-05 0)
(0.993781 0.00123196 0)
(0.993327 0.00239628 0)
(0.993107 0.00401381 0)
(0.994683 0.00454119 0)
(0.99611 0.00460407 0)
(0.996279 0.0051802 0)
(0.996366 0.0055772 0)
(0.996837 0.00562623 0)
(1.00071 -0.000268273 0)
(0.999179 -0.000534018 0)
(0.999126 -5.15754e-05 0)
(0.999796 0.00182091 0)
(0.99973 0.00258417 0)
(1.00109 0.00140715 0)
(1.00282 -0.001028 0)
(1.00163 -0.00307558 0)
(0.998286 -0.00318092 0)
(0.99557 -0.00278735 0)
(0.993982 -0.00197702 0)
(0.993669 -5.20564e-05 0)
(0.994133 0.00125755 0)
(0.993729 0.00238579 0)
(0.99346 0.00388161 0)
(0.994875 0.00441581 0)
(0.996313 0.00444158 0)
(0.996531 0.00499429 0)
(0.996549 0.0053946 0)
(0.996899 0.00550133 0)
(1.00068 -0.000285412 0)
(0.999206 -0.00041847 0)
(0.999245 -8.44929e-05 0)
(0.999929 0.00170617 0)
(0.99972 0.0025096 0)
(1.00092 0.00130025 0)
(1.0026 -0.000932401 0)
(1.00155 -0.00278753 0)
(0.998383 -0.00294799 0)
(0.995757 -0.00248525 0)
(0.994307 -0.00168767 0)
(0.994066 1.94555e-07 0)
(0.994496 0.00126217 0)
(0.994133 0.00236194 0)
(0.993816 0.00375913 0)
(0.995068 0.00431273 0)
(0.996514 0.00427858 0)
(0.996792 0.00477784 0)
(0.996747 0.00521924 0)
(0.996991 0.00533643 0)
(1.00066 -0.000304388 0)
(0.999229 -0.000302337 0)
(0.999356 -0.000106677 0)
(1.00007 0.00156702 0)
(0.99971 0.00244603 0)
(1.00075 0.00121498 0)
(1.0024 -0.000862098 0)
(1.00148 -0.00249282 0)
(0.998482 -0.00270263 0)
(0.995958 -0.0022274 0)
(0.994629 -0.00140595 0)
(0.994452 9.53391e-05 0)
(0.994863 0.00126241 0)
(0.994541 0.00231438 0)
(0.994181 0.00363391 0)
(0.995263 0.00422083 0)
(0.996701 0.00414828 0)
(0.997061 0.00453509 0)
(0.996963 0.00503261 0)
(0.997112 0.0051585 0)
(1.00064 -0.000325489 0)
(0.99925 -0.000188129 0)
(0.999456 -0.000116602 0)
(1.0002 0.00140543 0)
(0.999702 0.00238666 0)
(1.00058 0.00115638 0)
(1.00221 -0.000813853 0)
(1.00142 -0.00220546 0)
(0.998581 -0.00243646 0)
(0.996167 -0.00199503 0)
(0.994952 -0.0011457 0)
(0.994828 0.00022585 0)
(0.995226 0.00127143 0)
(0.994949 0.00223988 0)
(0.994555 0.00350153 0)
(0.995467 0.00412454 0)
(0.99687 0.00405372 0)
(0.997326 0.00430146 0)
(0.997198 0.00481182 0)
(0.997258 0.00497692 0)
(1.00062 -0.000347944 0)
(0.999267 -7.78403e-05 0)
(0.999544 -0.000110394 0)
(1.00035 0.00122472 0)
(0.999699 0.00232507 0)
(1.0004 0.00113556 0)
(1.00203 -0.000780613 0)
(1.00137 -0.00194089 0)
(0.998679 -0.00214644 0)
(0.996382 -0.00177721 0)
(0.995279 -0.000913809 0)
(0.995194 0.000374293 0)
(0.995576 0.0013054 0)
(0.995354 0.00215438 0)
(0.994942 0.00334925 0)
(0.995684 0.00402081 0)
(0.997022 0.00398026 0)
(0.997574 0.00410859 0)
(0.997449 0.00456434 0)
(0.997435 0.00477042 0)
(1.0006 -0.000367916 0)
(0.999282 2.57844e-05 0)
(0.999616 -8.69844e-05 0)
(1.00049 0.00103022 0)
(0.999704 0.00225335 0)
(1.00022 0.0011505 0)
(1.00186 -0.000755549 0)
(1.00134 -0.00171467 0)
(0.998774 -0.00183233 0)
(0.996596 -0.00155657 0)
(0.995612 -0.000730007 0)
(0.995556 0.000516512 0)
(0.99591 0.00137711 0)
(0.995746 0.00208308 0)
(0.995341 0.00316343 0)
(0.995923 0.00389577 0)
(0.997168 0.00391706 0)
(0.997794 0.00395597 0)
(0.997696 0.00433373 0)
(0.997634 0.00453224 0)
(1.00057 -0.000387184 0)
(0.999294 0.000119653 0)
(0.999671 -4.24448e-05 0)
(1.00062 0.000827474 0)
(0.999721 0.00216069 0)
(1.00004 0.00120347 0)
(1.0017 -0.000721965 0)
(1.00133 -0.0015298 0)
(0.998873 -0.00151117 0)
(0.996799 -0.0013189 0)
(0.995946 -0.000584651 0)
(0.995922 0.000636238 0)
(0.99623 0.00147474 0)
(0.996112 0.00204343 0)
(0.995741 0.00296506 0)
(0.99619 0.00373807 0)
(0.997314 0.00385298 0)
(0.997992 0.00383124 0)
(0.997928 0.00414039 0)
(0.997837 0.00430502 0)
(1.00055 -0.000402222 0)
(0.999306 0.00019534 0)
(0.999706 2.30017e-05 0)
(1.00075 0.000623993 0)
(0.999753 0.0020444 0)
(0.999851 0.00128651 0)
(1.00153 -0.000669465 0)
(1.00133 -0.00139072 0)
(0.998978 -0.00120177 0)
(0.996987 -0.00105549 0)
(0.996274 -0.00046294 0)
(0.996295 0.000715987 0)
(0.996541 0.00157396 0)
(0.996445 0.00204421 0)
(0.996132 0.0027801 0)
(0.996485 0.00353738 0)
(0.997471 0.00377226 0)
(0.998172 0.00373457 0)
(0.998145 0.00396851 0)
(0.998015 0.00413515 0)
(1.00052 -0.000411484 0)
(0.999318 0.000252198 0)
(0.999721 0.000107964 0)
(1.00088 0.00042789 0)
(0.999802 0.00189818 0)
(0.999665 0.00138628 0)
(1.00135 -0.000586778 0)
(1.00135 -0.00129409 0)
(0.999098 -0.00092382 0)
(0.997157 -0.000759107 0)
(0.996585 -0.000344141 0)
(0.996677 0.000742918 0)
(0.996855 0.00165388 0)
(0.996746 0.00209103 0)
(0.996494 0.00263451 0)
(0.996802 0.00330271 0)
(0.997656 0.00365312 0)
(0.998338 0.00365552 0)
(0.998355 0.00380551 0)
(0.998164 0.00401384 0)
(1.0005 -0.000414299 0)
(0.999332 0.000287117 0)
(0.999716 0.000210062 0)
(1.00098 0.000250587 0)
(0.999871 0.00171683 0)
(0.999485 0.0014935 0)
(1.00115 -0.000460598 0)
(1.00138 -0.00122391 0)
(0.99924 -0.000691823 0)
(0.997313 -0.000447471 0)
(0.996865 -0.000206557 0)
(0.997062 0.00072757 0)
(0.997184 0.0016934 0)
(0.997023 0.00216239 0)
(0.996813 0.00254775 0)
(0.997122 0.00306807 0)
(0.997874 0.00348173 0)
(0.998499 0.00358143 0)
(0.998561 0.00365892 0)
(0.998304 0.00389961 0)
(1.00047 -0.000408762 0)
(0.99935 0.000299037 0)
(0.999692 0.000322014 0)
(1.00107 0.000101261 0)
(0.999959 0.0015067 0)
(0.999319 0.00159081 0)
(1.00093 -0.000293746 0)
(1.00142 -0.00116621 0)
(0.999406 -0.000517897 0)
(0.997459 -0.000139258 0)
(0.997106 -3.88104e-05 0)
(0.997438 0.000695759 0)
(0.997535 0.00167952 0)
(0.997291 0.00222533 0)
(0.997084 0.00252093 0)
(0.997423 0.00286979 0)
(0.998127 0.00325321 0)
(0.998673 0.00348292 0)
(0.998759 0.00354031 0)
(0.998458 0.00376257 0)
(1.00044 -0.000394494 0)
(0.999372 0.000286782 0)
(0.999653 0.000443735 0)
(1.00113 -1.64059e-05 0)
(1.00007 0.00126993 0)
(0.999173 0.00166521 0)
(1.0007 -8.19425e-05 0)
(1.00144 -0.00110162 0)
(0.9996 -0.000408797 0)
(0.997607 0.000162484 0)
(0.997303 0.000173809 0)
(0.99779 0.000672323 0)
(0.997906 0.00160779 0)
(0.997568 0.00226039 0)
(0.997315 0.00254152 0)
(0.997676 0.00273801 0)
(0.998394 0.00300838 0)
(0.998882 0.00332084 0)
(0.998948 0.00344945 0)
(0.998634 0.00361053 0)
(1.00041 -0.000370173 0)
(0.999401 0.000252929 0)
(0.999601 0.000562004 0)
(1.00116 -9.38655e-05 0)
(1.00019 0.00101915 0)
(0.999058 0.00170374 0)
(1.00044 0.000157338 0)
(1.00145 -0.0010123 0)
(0.999822 -0.0003545 0)
(0.997771 0.000429008 0)
(0.997454 0.000429138 0)
(0.998095 0.000678859 0)
(0.99829 0.00149194 0)
(0.997871 0.00224378 0)
(0.997524 0.0025763 0)
(0.997873 0.00266925 0)
(0.99864 0.00280558 0)
(0.99913 0.00308959 0)
(0.999149 0.00334108 0)
(0.998816 0.00348285 0)
(1.00038 -0.000337701 0)
(0.999437 0.000201201 0)
(0.999542 0.000672726 0)
(1.00116 -0.000128005 0)
(1.00033 0.000761454 0)
(0.99898 0.00169935 0)
(1.00018 0.000414925 0)
(1.00142 -0.000888703 0)
(1.00006 -0.000346236 0)
(0.997964 0.000622357 0)
(0.997571 0.000699406 0)
(0.998342 0.000730152 0)
(0.998667 0.00136443 0)
(0.998206 0.00216544 0)
(0.997731 0.00260121 0)
(0.998023 0.00265 0)
(0.998836 0.00266548 0)
(0.999391 0.00284385 0)
(0.999393 0.00315884 0)
(0.999007 0.00337919 0)
(1.00034 -0.000295874 0)
(0.999481 0.000133691 0)
(0.999483 0.000767103 0)
(1.00112 -0.000113969 0)
(1.00046 0.000511484 0)
(0.998946 0.00164246 0)
(0.99991 0.000682182 0)
(1.00135 -0.000717587 0)
(1.00031 -0.000363062 0)
(0.998193 0.000742372 0)
(0.997667 0.00096598 0)
(0.998522 0.000834901 0)
(0.999019 0.00125226 0)
(0.998574 0.00202731 0)
(0.997959 0.00259064 0)
(0.998138 0.00266257 0)
(0.998971 0.00258098 0)
(0.999623 0.0026482 0)
(0.999678 0.00291119 0)
(0.999237 0.00324186 0)
(1.00031 -0.000248312 0)
(0.999532 6.04814e-05 0)
(0.999428 0.000836232 0)
(1.00106 -5.63317e-05 0)
(1.0006 0.000282889 0)
(0.99896 0.0015339 0)
(0.999654 0.000933242 0)
(1.00123 -0.0004954 0)
(1.00054 -0.000383283 0)
(0.998466 0.000783227 0)
(0.997762 0.00120229 0)
(0.998636 0.000989081 0)
(0.999319 0.00117738 0)
(0.99896 0.00185106 0)
(0.998226 0.00252154 0)
(0.99824 0.00268254 0)
(0.999052 0.0025389 0)
(0.999795 0.00251371 0)
(0.999966 0.0026652 0)
(0.999534 0.00302223 0)
(1.00027 -0.000195883 0)
(0.99959 -1.22343e-05 0)
(0.999384 0.000879672 0)
(1.00096 2.95767e-05 0)
(1.00072 9.12738e-05 0)
(0.999023 0.00138276 0)
(0.999425 0.00114914 0)
(1.00106 -0.000237229 0)
(1.00075 -0.000383159 0)
(0.998777 0.000752813 0)
(0.997878 0.00138247 0)
(0.998695 0.00117354 0)
(0.999551 0.00115413 0)
(0.999343 0.00167241 0)
(0.998542 0.00238849 0)
(0.998353 0.00268494 0)
(0.99909 0.00253011 0)
(0.999904 0.00242391 0)
(1.00021 0.00248355 0)
(0.999884 0.00274414 0)
(1.00023 -0.000141859 0)
(0.999653 -7.69206e-05 0)
(0.999354 0.000887592 0)
(1.00084 0.000141278 0)
(1.00081 -5.9385e-05 0)
(0.99913 0.00119155 0)
(0.999233 0.00131381 0)
(1.00086 3.60203e-05 0)
(1.00091 -0.000342906 0)
(0.999117 0.000674952 0)
(0.998031 0.00149005 0)
(0.998715 0.00136533 0)
(0.999706 0.00118616 0)
(0.999696 0.00151895 0)
(0.998901 0.00220155 0)
(0.998504 0.00264094 0)
(0.999101 0.00254259 0)
(0.999962 0.00236252 0)
(1.00037 0.00236858 0)
(1.00023 0.00248789 0)
(1.0002 -8.92253e-05 0)
(0.999717 -0.000132499 0)
(0.999344 0.000864091 0)
(1.0007 0.000265871 0)
(1.00088 -0.000159064 0)
(0.999276 0.000981246 0)
(0.999093 0.00141221 0)
(1.00063 0.000321087 0)
(1.00101 -0.000249895 0)
(0.999466 0.000576806 0)
(0.998233 0.00151856 0)
(0.998722 0.00154047 0)
(0.999787 0.00126743 0)
(0.999992 0.00141015 0)
(0.999283 0.00199168 0)
(0.998714 0.00253245 0)
(0.999107 0.00255595 0)
(0.999976 0.00232661 0)
(1.00047 0.00228872 0)
(1.0005 0.00231355 0)
(1.00016 -4.03423e-05 0)
(0.999781 -0.00017173 0)
(0.999355 0.000811458 0)
(1.00056 0.000388355 0)
(1.00092 -0.00019444 0)
(0.999448 0.000773569 0)
(0.99901 0.00144187 0)
(1.00039 0.000603868 0)
(1.00105 -0.000107537 0)
(0.999803 0.00048198 0)
(0.998486 0.00147445 0)
(0.998739 0.00167611 0)
(0.999803 0.00138041 0)
(1.00021 0.00135531 0)
(0.999657 0.00179476 0)
(0.998987 0.0023626 0)
(0.999138 0.00253864 0)
(0.999954 0.00231754 0)
(1.00053 0.00221984 0)
(1.00067 0.00221624 0)
(1.00013 1.98099e-06 0)
(0.999842 -0.000191259 0)
(0.999386 0.000734791 0)
(1.00041 0.000499637 0)
(1.00091 -0.000174738 0)
(0.999632 0.000577239 0)
(0.998992 0.00140406 0)
(1.00015 0.000856208 0)
(1.00102 7.26057e-05 0)
(1.00011 0.000408721 0)
(0.998783 0.00137156 0)
(0.99879 0.0017495 0)
(0.999776 0.00149985 0)
(1.00035 0.0013513 0)
(0.999993 0.00163433 0)
(0.999308 0.00215768 0)
(0.999225 0.00246348 0)
(0.999909 0.00232461 0)
(1.00055 0.00215971 0)
(1.00077 0.00215652 0)
(1.0001 3.72213e-05 0)
(0.999896 -0.000192238 0)
(0.999436 0.000644299 0)
(1.00028 0.000586901 0)
(1.00088 -0.000113048 0)
(0.999812 0.000413042 0)
(0.999036 0.00130874 0)
(0.999949 0.00105038 0)
(1.00093 0.000282942 0)
(1.00036 0.000380144 0)
(0.999108 0.00124134 0)
(0.998889 0.00175671 0)
(0.999731 0.00160653 0)
(1.00042 0.00138724 0)
(1.00027 0.00152123 0)
(0.999646 0.00195408 0)
(0.999386 0.00232501 0)
(0.999871 0.00231844 0)
(1.00054 0.0021184 0)
(1.00082 0.00209937 0)
(1.00008 6.45346e-05 0)
(0.999943 -0.000175269 0)
(0.999501 0.000548253 0)
(1.00016 0.000645759 0)
(1.00081 -2.62184e-05 0)
(0.999976 0.000287769 0)
(0.999131 0.0011814 0)