/*--------------------------------*- C++ -*----------------------------------*\
| =========                 |                                                 |
| \\      /  F ield         | OpenFOAM: The Open Source CFD Toolbox           |
|  \\    /   O peration     | Version:  2106                                  |
|   \\  /    A nd           | Website:  www.openfoam.com                      |
|    \\/     M anipulation  |                                                 |
\*---------------------------------------------------------------------------*/
FoamFile
{
    version     2.0;
    format      ascii;
    arch        "LSB;label=32;scalar=64";
    class       volVectorField;
    location    "0.79";
    object      U;
}
// * * * * * * * * * * * * * * * * * * * * * * * * * * * * * * * * * * * * * //

dimensions      [0 1 -1 0 0 0 0];

internalField   nonuniform List<vector> 
9600
(
(0.874084 -0.00486896 0)
(1.11957 -0.00225447 0)
(0.884691 0.00558158 0)
(1.11707 -0.00238929 0)
(0.881595 0.00294976 0)
(1.16606 0.00058996 0)
(0.867595 0.000202359 0)
(1.12992 0.00503039 0)
(0.921194 -0.00112577 0)
(1.09804 -0.00612766 0)
(0.931141 -0.00347135 0)
(1.11649 -0.0123233 0)
(0.916045 0.00690722 0)
(1.12821 -0.00547872 0)
(0.88116 0.00609262 0)
(1.13573 0.00181902 0)
(0.861952 0.00576722 0)
(1.12918 0.0076569 0)
(0.854743 0.0066104 0)
(1.1154 0.00455779 0)
(0.885125 -0.0048962 0)
(1.11057 -0.00219713 0)
(0.896955 0.0054679 0)
(1.10497 -0.00216202 0)
(0.896586 0.00228525 0)
(1.1482 0.00104221 0)
(0.889282 0.000465089 0)
(1.11027 0.00462155 0)
(0.944794 -0.000903895 0)
(1.07652 -0.0060273 0)
(0.952947 -0.00402448 0)
(1.08976 -0.0117804 0)
(0.940963 0.00633808 0)
(1.09335 -0.00440844 0)
(0.921452 0.00556496 0)
(1.08381 0.00262667 0)
(0.928248 0.00613106 0)
(1.05033 0.00740957 0)
(0.957039 0.00821652 0)
(0.998995 0.0037485 0)
(0.903719 -0.00491845 0)
(1.09183 -0.00218299 0)
(0.921176 0.00537222 0)
(1.08387 -0.00202539 0)
(0.924802 0.00173845 0)
(1.11754 0.00120971 0)
(0.925741 0.000676143 0)
(1.0797 0.00413824 0)
(0.975002 -0.000606126 0)
(1.0478 -0.00604823 0)
(0.979745 -0.0043181 0)
(1.05532 -0.0114773 0)
(0.974495 0.0060647 0)
(1.05635 -0.00395919 0)
(0.969053 0.00564615 0)
(1.03897 0.0024955 0)
(0.98161 0.00667521 0)
(1.00977 0.00693286 0)
(0.994604 0.0090179 0)
(0.989521 0.00452271 0)
(0.926411 -0.00491196 0)
(1.06601 -0.00226069 0)
(0.950834 0.00532781 0)
(1.05875 -0.00196885 0)
(0.957583 0.00137778 0)
(1.08274 0.00125791 0)
(0.962811 0.000953136 0)
(1.05133 0.0037333 0)
(0.998356 -0.000304675 0)
(1.02433 -0.00604025 0)
(0.997204 -0.00443351 0)
(1.02794 -0.0113714 0)
(0.997236 0.00593601 0)
(1.03415 -0.00383769 0)
(0.998196 0.00596681 0)
(1.02172 0.0022515 0)
(1.00461 0.00721627 0)
(1.00667 0.00682724 0)
(1.00432 0.00931221 0)
(1.00105 0.00553643 0)
(0.949194 -0.00485905 0)
(1.03881 -0.00242662 0)
(0.977805 0.00530498 0)
(1.03533 -0.00195997 0)
(0.985501 0.00113913 0)
(1.05175 0.0012403 0)
(0.989658 0.00120812 0)
(1.03223 0.0034431 0)
(1.01024 -1.27208e-05 0)
(1.01018 -0.00595428 0)
(1.00311 -0.00448959 0)
(1.01093 -0.0113435 0)
(1.00611 0.00568415 0)
(1.02345 -0.00379383 0)
(1.01035 0.00612358 0)
(1.01841 0.00218895 0)
(1.01273 0.00753089 0)
(1.01143 0.00689299 0)
(1.01015 0.00953172 0)
(1.00777 0.00635399 0)
(0.968642 -0.0047583 0)
(1.01596 -0.00264703 0)
(0.996627 0.00527338 0)
(1.01775 -0.00198007 0)
(1.00346 0.000984191 0)
(1.02872 0.00121629 0)
(1.00354 0.00135242 0)
(1.02158 0.00328343 0)
(1.01326 0.000265502 0)
(1.00289 -0.00580891 0)
(1.00252 -0.00448872 0)
(1.00098 -0.0113641 0)
(1.00663 0.00530494 0)
(1.0171 -0.00380999 0)
(1.01349 0.00606476 0)
(1.01757 0.00223721 0)
(1.01548 0.00756257 0)
(1.01437 0.00703227 0)
(1.01398 0.00963282 0)
(1.01108 0.00709465 0)
(0.983011 -0.00462423 0)
(1.00052 -0.00287694 0)
(1.00614 0.00521573 0)
(1.00704 -0.00200836 0)
(1.01151 0.000894141 0)
(1.01372 0.0012178 0)
(1.00759 0.00138323 0)
(1.01541 0.00321471 0)
(1.0119 0.000525785 0)
(0.999325 -0.00563174 0)
(1.00023 -0.00443269 0)
(0.995032 -0.0114035 0)
(1.00389 0.00486471 0)
(1.01166 -0.00389568 0)
(1.0124 0.00589325 0)
(1.01558 0.00226902 0)
(1.01543 0.00745448 0)
(1.01477 0.00723825 0)
(1.01511 0.00960316 0)
(1.01215 0.00784311 0)
(0.99234 -0.00447822 0)
(0.992367 -0.00307594 0)
(1.00843 0.00513109 0)
(1.00175 -0.0020321 0)
(1.01264 0.000853206 0)
(1.0048 0.00124573 0)
(1.00647 0.00134129 0)
(1.0109 0.00318135 0)
(1.0093 0.000759233 0)
(0.9978 -0.00545152 0)
(0.998484 -0.00433541 0)
(0.991757 -0.0114217 0)
(1.00046 0.00440857 0)
(1.00653 -0.00399453 0)
(1.00921 0.00563976 0)
(1.01209 0.00228353 0)
(1.01315 0.00728303 0)
(1.01295 0.00746366 0)
(1.01373 0.00949567 0)
(1.0111 0.00861272 0)
(0.997749 -0.004337 0)
(0.989416 -0.00322548 0)
(1.0067 0.00502831 0)
(0.999685 -0.00204851 0)
(1.01023 0.000848889 0)
(0.999881 0.00128696 0)
(1.00372 0.00126811 0)
(1.00721 0.0031469 0)
(1.00699 0.000950083 0)
(0.997533 -0.0052881 0)
(0.997754 -0.00420902 0)
(0.99047 -0.0113893 0)
(0.997312 0.00398025 0)
(1.00208 -0.00405882 0)
(1.00506 0.00531827 0)
(1.0077 0.00232905 0)
(1.0093 0.00703352 0)
(1.00944 0.00769704 0)
(1.01054 0.00934695 0)
(1.0084 0.00934805 0)
(1.00061 -0.00420925 0)
(0.989303 -0.00332444 0)
(1.00359 0.0049188 0)
(0.999121 -0.00205693 0)
(1.00668 0.000870052 0)
(0.997423 0.00132563 0)
(1.00116 0.00119106 0)
(1.00433 0.00309499 0)
(1.00542 0.00108834 0)
(0.997974 -0.00514595 0)
(0.997764 -0.0040663 0)
(0.990499 -0.0112893 0)
(0.994769 0.00360569 0)
(0.998613 -0.0040653 0)
(1.00083 0.00496465 0)
(1.0032 0.00242563 0)
(1.00479 0.00671237 0)
(1.00511 0.00794884 0)
(1.00648 0.00916707 0)
(1.0049 0.00998418 0)
(1.00202 -0.00409741 0)
(0.990314 -0.00337773 0)
(1.00056 0.0048119 0)
(0.999111 -0.00205619 0)
(1.00327 0.000904816 0)
(0.996411 0.00134957 0)
(0.999369 0.00112351 0)
(1.00226 0.00302193 0)
(1.00451 0.00117572 0)
(0.998669 -0.00502156 0)
(0.998086 -0.00391826 0)
(0.991174 -0.0111166 0)
(0.992884 0.00328534 0)
(0.99616 -0.00399872 0)
(0.99714 0.00460538 0)
(0.999186 0.00257652 0)
(1.00051 0.00635254 0)
(1.00083 0.00821586 0)
(1.00245 0.00897485 0)
(1.0014 0.0104792 0)
(1.0027 -0.00399884 0)
(0.991521 -0.00339739 0)
(0.998143 0.0047111 0)
(0.999258 -0.00204581 0)
(1.0005 0.000943211 0)
(0.996168 0.00135313 0)
(0.998327 0.00107015 0)
(1.00085 0.00293117 0)
(1.00401 0.00122003 0)
(0.999315 -0.00490783 0)
(0.998405 -0.00377246 0)
(0.992 -0.0108765 0)
(0.991585 0.00300566 0)
(0.994538 -0.00385147 0)
(0.99429 0.00424886 0)
(0.995988 0.00278401 0)
(0.997019 0.00597807 0)
(0.997207 0.00848069 0)
(0.999064 0.00880053 0)
(0.998463 0.0108143 0)
(1.00301 -0.00390967 0)
(0.992546 -0.00339397 0)
(0.996408 0.00461705 0)
(0.999424 -0.00202664 0)
(0.998484 0.000979743 0)
(0.996253 0.00133588 0)
(0.997813 0.00103175 0)
(0.999878 0.00282909 0)
(1.00368 0.00122977 0)
(0.999773 -0.00479746 0)
(0.998579 -0.003632 0)
(0.992719 -0.0105804 0)
(0.990751 0.00274935 0)
(0.993521 -0.00362962 0)
(0.992324 0.0038949 0)
(0.993668 0.00304587 0)
(0.994512 0.00560685 0)
(0.994514 0.00871863 0)
(0.996563 0.00867677 0)
(0.996331 0.010989 0)
(1.00314 -0.00382586 0)
(0.993295 -0.00337562 0)
(0.995245 0.00452876 0)
(0.999559 -0.00200108 0)
(0.997164 0.00101285 0)
(0.996419 0.00130082 0)
(0.997612 0.00100658 0)
(0.999207 0.00272269 0)
(1.00338 0.00121189 0)
(1.00002 -0.00468411 0)
(0.998597 -0.00350077 0)
(0.993256 -0.010236 0)
(0.990267 0.0025003 0)
(0.992918 -0.00334782 0)
(0.991132 0.00354411 0)
(0.992137 0.00334618 0)
(0.992935 0.00525832 0)
(0.992749 0.00890642 0)
(0.994927 0.00862917 0)
(0.995005 0.0110168 0)
(1.00318 -0.00374378 0)
(0.993799 -0.00334887 0)
(0.994524 0.00444502 0)
(0.999643 -0.00197199 0)
(0.996399 0.00104294 0)
(0.996557 0.00125305 0)
(0.997572 0.000990983 0)
(0.998767 0.00261737 0)
(1.0031 0.00117339 0)
(1.0001 -0.00456403 0)
(0.998507 -0.00338124 0)
(0.993632 -0.0098519 0)
(0.990042 0.00225037 0)
(0.99259 -0.00302085 0)
(0.99054 0.00319382 0)
(0.991239 0.003664 0)
(0.992102 0.00494952 0)
(0.991765 0.00902102 0)
(0.993997 0.00866608 0)
(0.994347 0.0109266 0)
(1.00317 -0.00366064 0)
(0.994129 -0.00331851 0)
(0.994122 0.00436532 0)
(0.999676 -0.00194156 0)
(0.996026 0.00107044 0)
(0.996648 0.00119814 0)
(0.9976 0.00098047 0)
(0.998509 0.00251656 0)
(1.00283 0.00111932 0)
(1.00008 -0.00443468 0)
(0.998366 -0.00327417 0)
(0.993897 -0.00943554 0)
(0.990005 0.00199094 0)
(0.992441 -0.00265804 0)
(0.990365 0.00284328 0)
(0.990801 0.00397922 0)
(0.991792 0.00469865 0)
(0.991359 0.00904935 0)
(0.993572 0.00877534 0)
(0.994169 0.0107543 0)
(1.00313 -0.00357438 0)
(0.994351 -0.00328853 0)
(0.993933 0.0042896 0)
(0.999673 -0.00191135 0)
(0.995894 0.00109602 0)
(0.996703 0.00114 0)
(0.99765 0.000971228 0)
(0.998383 0.00242217 0)
(1.0026 0.00105252 0)
(0.999994 -0.00429296 0)
(0.998212 -0.0031825 0)
(0.994102 -0.00899061 0)
(0.990096 0.00171529 0)
(0.992398 -0.00226876 0)
(0.990448 0.00250057 0)
(0.990662 0.00426982 0)
(0.991803 0.00452132 0)
(0.99133 0.0089948 0)
(0.993462 0.00893222 0)
(0.994284 0.0105383 0)
(1.00307 -0.00348368 0)
(0.994518 -0.00326189 0)
(0.99387 0.00421799 0)
(0.99965 -0.0018824 0)
(0.995891 0.00112018 0)
(0.996738 0.00108156 0)
(0.997703 0.0009598 0)
(0.998337 0.00233535 0)
(1.0024 0.000974651 0)
(0.999886 -0.00413747 0)
(0.998065 -0.00310561 0)
(0.99428 -0.00852654 0)
(0.990269 0.00143072 0)
(0.992415 -0.00187332 0)
(0.990668 0.00217874 0)
(0.990694 0.00451351 0)
(0.99198 0.00442022 0)
(0.991514 0.00886991 0)
(0.993517 0.00910795 0)
(0.994546 0.0103139 0)
(1.003 -0.00338786 0)
(0.994664 -0.00324022 0)
(0.993874 0.00415098 0)
(0.99962 -0.0018552 0)
(0.995945 0.00114281 0)
(0.996765 0.00102546 0)
(0.997754 0.000943202 0)
(0.998331 0.00225717 0)
(1.00223 0.000887779 0)
(0.999776 -0.00396535 0)
(0.99793 -0.00304364 0)
(0.99445 -0.00804823 0)
(0.990489 0.00114427 0)
(0.99246 -0.00148422 0)
(0.990951 0.00189027 0)
(0.990813 0.00469991 0)
(0.992223 0.00439343 0)
(0.991803 0.00869048 0)
(0.993642 0.00927162 0)
(0.994857 0.0100981 0)
(1.00292 -0.00328653 0)
(0.994804 -0.00322453 0)
(0.993908 0.00408907 0)
(0.999591 -0.00182975 0)
(0.99602 0.00116308 0)
(0.996786 0.000974017 0)
(0.997804 0.000919477 0)
(0.998341 0.0021894 0)
(1.00207 0.00079108 0)
(0.99967 -0.0037769 0)
(0.997808 -0.00299102 0)
(0.994618 -0.00756111 0)
(0.990738 0.000865006 0)
(0.99252 -0.00111013 0)
(0.991257 0.00164833 0)
(0.990973 0.00483073 0)
(0.992479 0.00442674 0)
(0.992134 0.00847251 0)
(0.993787 0.00940883 0)
(0.995164 0.00990454 0)
(1.00284 -0.00317961 0)
(0.994948 -0.00321526 0)
(0.993955 0.00403229 0)
(0.999565 -0.00180563 0)
(0.996103 0.00118094 0)
(0.996805 0.000927436 0)
(0.997855 0.000886073 0)
(0.998355 0.00213178 0)
(1.00192 0.000681785 0)
(0.99957 -0.0035751 0)
(0.997697 -0.00294214 0)
(0.994789 -0.00707701 0)
(0.991002 0.000602684 0)
(0.992587 -0.000762613 0)
(0.991568 0.00145842 0)
(0.991154 0.00491405 0)
(0.992726 0.00450048 0)
(0.992481 0.00823334 0)
(0.993934 0.00951856 0)
(0.995441 0.00974838 0)
(1.00276 -0.00306692 0)
(0.995096 -0.00321291 0)
(0.994008 0.00398072 0)
(0.999542 -0.0017831 0)
(0.996188 0.00119656 0)
(0.996822 0.000886331 0)
(0.997909 0.000843626 0)
(0.998369 0.00208348 0)
(1.00178 0.000562019 0)
(0.999476 -0.00336377 0)
(0.997594 -0.00289584 0)
(0.994959 -0.00660295 0)
(0.991279 0.000365451 0)
(0.99266 -0.000451075 0)
(0.991881 0.00131348 0)
(0.991352 0.00496007 0)
(0.992958 0.00460004 0)
(0.992837 0.00798009 0)
(0.994082 0.00959239 0)
(0.995681 0.00963142 0)
(1.00267 -0.00294868 0)
(0.99525 -0.00321741 0)
(0.994064 0.00393462 0)
(0.999522 -0.00176159 0)
(0.996275 0.00120753 0)
(0.996838 0.000854391 0)
(0.997966 0.000789517 0)
(0.998383 0.0020482 0)
(1.00164 0.000434311 0)
(0.999388 -0.0031465 0)
(0.997499 -0.00284828 0)
(0.99513 -0.00614475 0)
(0.991564 0.00016757 0)
(0.992739 -0.000171467 0)
(0.992193 0.00120907 0)
(0.991568 0.00497339 0)
(0.993177 0.00472019 0)
(0.9932 0.00771346 0)
(0.994239 0.00961969 0)
(0.995883 0.00955092 0)
(1.00258 -0.00282469 0)
(0.99541 -0.0032293 0)
(0.994123 0.00389346 0)
(0.999504 -0.00173901 0)
(0.996365 0.00121218 0)
(0.996854 0.000833969 0)
(0.998027 0.000718742 0)
(0.998395 0.00202838 0)
(1.0015 0.000302103 0)
(0.999306 -0.00292935 0)
(0.997409 -0.00278541 0)
(0.9953 -0.0057153 0)
(0.991857 1.28623e-05 0)
(0.992824 7.18502e-05 0)
(0.992505 0.00114219 0)
(0.991805 0.00495965 0)
(0.993384 0.00486422 0)
(0.99357 0.00743991 0)
(0.994414 0.00959129 0)
(0.99605 0.00950988 0)
(1.00249 -0.00269536 0)
(0.995575 -0.00324734 0)
(0.994186 0.00385558 0)
(0.999489 -0.0017147 0)
(0.996459 0.00121045 0)
(0.996868 0.000826008 0)
(0.998092 0.000632836 0)
(0.998408 0.0020207 0)
(1.00137 0.000169187 0)
(0.999231 -0.0027196 0)
(0.997325 -0.00269702 0)
(0.995469 -0.00532188 0)
(0.992159 -0.000112333 0)
(0.992917 0.000284738 0)
(0.992818 0.00110573 0)
(0.992066 0.00492457 0)
(0.993582 0.00502889 0)
(0.993942 0.00716743 0)
(0.994615 0.00949452 0)
(0.996187 0.00950528 0)
(1.0024 -0.00256092 0)
(0.995746 -0.00327088 0)
(0.994252 0.00382097 0)
(0.999475 -0.00168834 0)
(0.996557 0.00119965 0)
(0.996882 0.000833384 0)
(0.998161 0.000531072 0)
(0.99842 0.0020215 0)
(1.00123 3.85721e-05 0)
(0.999164 -0.00252504 0)
(0.997247 -0.00257856 0)
(0.995635 -0.00496595 0)
(0.992469 -0.000208273 0)
(0.993019 0.000487494 0)
(0.993131 0.00108933 0)
(0.992353 0.00486571 0)
(0.993771 0.00520719 0)
(0.994311 0.00691122 0)
(0.994849 0.00932138 0)
(0.996301 0.00952405 0)
(1.00231 -0.00242168 0)
(0.995923 -0.00329943 0)
(0.994323 0.00378887 0)
(0.999462 -0.00165637 0)
(0.996662 0.00117602 0)
(0.996894 0.000858247 0)
(0.998234 0.000412275 0)
(0.998432 0.00202873 0)
(1.0011 -8.34966e-05 0)
(0.999105 -0.00235674 0)
(0.997174 -0.00242728 0)
(0.995799 -0.00463643 0)
(0.99279 -0.000275502 0)
(0.993129 0.000688516 0)
(0.993442 0.00109162 0)
(0.992669 0.00478048 0)
(0.993955 0.00539127 0)
(0.994668 0.00668994 0)
(0.99512 0.00907061 0)
(0.996404 0.00954408 0)
(1.00221 -0.00227827 0)
(0.996105 -0.00333222 0)
(0.9944 0.00375444 0)
(0.999449 -0.0016147 0)
(0.996774 0.00113862 0)
(0.996906 0.000901344 0)
(0.998312 0.000278577 0)
(0.998447 0.0020371 0)
(1.00097 -0.000184168 0)
(0.999058 -0.00222081 0)
(0.997107 -0.00224662 0)
(0.995958 -0.00432818 0)
(0.993122 -0.0003295 0)
(0.99325 0.00089656 0)
(0.993749 0.00112133 0)
(0.993014 0.00466537 0)
(0.99414 0.00556675 0)
(0.995004 0.00651863 0)
(0.995426 0.00875179 0)
(0.996513 0.00953157 0)
(1.00212 -0.00213072 0)
(0.996293 -0.00336921 0)
(0.994483 0.00371728 0)
(0.999436 -0.00156312 0)
(0.996893 0.00108646 0)
(0.996918 0.000964194 0)
(0.998395 0.000135799 0)
(0.998465 0.00204027 0)
(1.00084 -0.000260334 0)
(0.999021 -0.00211608 0)
(0.997048 -0.0020424 0)
(0.996111 -0.00402589 0)
(0.993468 -0.000380046 0)
(0.993384 0.00111048 0)
(0.994048 0.00118734 0)
(0.993389 0.00451996 0)
(0.994332 0.00571636 0)
(0.995312 0.00640595 0)
(0.995761 0.00838886 0)
(0.996644 0.00945107 0)
(1.00202 -0.00198023 0)
(0.996487 -0.00340699 0)
(0.994572 0.00367379 0)
(0.999422 -0.00149765 0)
(0.99702 0.00101604 0)
(0.99693 0.00104555 0)
(0.998481 -1.04901e-05 0)
(0.998488 0.00203463 0)
(1.00071 -0.000304311 0)
(0.998997 -0.00204307 0)
(0.996999 -0.00181888 0)
(0.996257 -0.00371778 0)
(0.993827 -0.000428748 0)
(0.993535 0.00133091 0)
(0.994335 0.00129229 0)
(0.993788 0.00434288 0)
(0.994539 0.00582146 0)
(0.995589 0.00634826 0)
(0.996113 0.00801275 0)
(0.996815 0.00927543 0)
(1.00193 -0.0018277 0)
(0.996686 -0.00344341 0)
(0.99467 0.00361611 0)
(0.999407 -0.00140939 0)
(0.997155 0.000925208 0)
(0.996941 0.00114482 0)
(0.998572 -0.000162703 0)
(0.998519 0.00200807 0)
(1.00058 -0.000304974 0)
(0.998986 -0.00200114 0)
(0.996964 -0.00159165 0)
(0.996392 -0.0033977 0)
(0.994199 -0.000485148 0)
(0.993706 0.00154012 0)
(0.994603 0.001436 0)
(0.994205 0.00414247 0)
(0.994772 0.00586966 0)
(0.995835 0.00633315 0)
(0.996464 0.00765931 0)
(0.997031 0.00900462 0)
(1.00183 -0.00167432 0)
(0.99689 -0.00347654 0)
(0.994778 0.00354558 0)
(0.99939 -0.0012973 0)
(0.997298 0.000816821 0)
(0.996952 0.00125617 0)
(0.998663 -0.000308907 0)
(0.998562 0.00195256 0)
(1.00044 -0.000266853 0)
(0.998986 -0.00198152 0)
(0.996945 -0.00137282 0)
(0.996517 -0.00304991 0)
(0.994582 -0.000537135 0)
(0.993902 0.00172306 0)
(0.994853 0.00162165 0)
(0.994632 0.00393641 0)
(0.995035 0.00585104 0)
(0.996055 0.00634543 0)
(0.996799 0.0073614 0)
(0.997292 0.00866337 0)
(1.00174 -0.00152043 0)
(0.997098 -0.00350504 0)
(0.994896 0.00345627 0)
(0.999371 -0.00116131 0)
(0.997449 0.000694984 0)
(0.996964 0.00137069 0)
(0.998754 -0.000434441 0)
(0.998617 0.00186433 0)
(1.0003 -0.000187904 0)
(0.998996 -0.00197269 0)
(0.996948 -0.00116301 0)
(0.996631 -0.00267626 0)
(0.994972 -0.000574542 0)
(0.994127 0.00186973 0)
(0.995082 0.00184182 0)
(0.995058 0.0037455 0)
(0.995333 0.0057615 0)
(0.996263 0.00636041 0)
(0.997105 0.00713148 0)
(0.997583 0.00828609 0)
(1.00164 -0.0013682 0)
(0.99731 -0.00352596 0)
(0.995027 0.00334263 0)
(0.999351 -0.00100078 0)
(0.997608 0.000560916 0)
(0.996978 0.00148833 0)
(0.998841 -0.000532499 0)
(0.998688 0.00173781 0)
(1.00017 -7.5752e-05 0)
(0.999014 -0.00196175 0)
(0.996975 -0.000974816 0)
(0.996735 -0.00227592 0)
(0.995364 -0.000598824 0)
(0.994386 0.00196267 0)
(0.995296 0.00208173 0)
(0.995474 0.00359364 0)
(0.995666 0.00561336 0)
(0.996471 0.00634726 0)
(0.997378 0.00695946 0)
(0.997884 0.00791972 0)
(1.00155 -0.00121826 0)
(0.997524 -0.00353581 0)
(0.99517 0.00320203 0)
(0.999329 -0.000817942 0)
(0.997775 0.000419634 0)
(0.996995 0.00159711 0)
(0.998921 -0.000594513 0)
(0.998774 0.0015727 0)
(1.00003 5.59837e-05 0)
(0.999037 -0.00193766 0)
(0.997031 -0.000822488 0)
(0.99683 -0.00185225 0)
(0.99575 -0.000591796 0)
(0.994681 0.00200369 0)
(0.995503 0.00232108 0)
(0.995869 0.00348061 0)
(0.996026 0.00542216 0)
(0.996692 0.00629561 0)
(0.997623 0.00682343 0)
(0.998176 0.00760147 0)
(1.00145 -0.00107263 0)
(0.997738 -0.00353103 0)
(0.995329 0.00303619 0)
(0.999306 -0.000617571 0)
(0.997947 0.000277082 0)
(0.997018 0.00169069 0)
(0.998993 -0.000615331 0)
(0.998876 0.00137449 0)
(0.999903 0.000202214 0)
(0.99906 -0.00188448 0)
(0.997118 -0.00071133 0)
(0.99692 -0.00142234 0)
(0.996124 -0.000540735 0)
(0.99501 0.00199576 0)
(0.995708 0.00254447 0)
(0.996238 0.00340924 0)
(0.996408 0.00520394 0)
(0.996932 0.00620952 0)
(0.99785 0.00669726 0)
(0.998449 0.00733082 0)
(1.00136 -0.000932473 0)
(0.997952 -0.00351026 0)
(0.995502 0.0028504 0)
(0.999283 -0.000407333 0)
(0.998123 0.000139567 0)
(0.997048 0.00176542 0)
(0.999053 -0.000587759 0)
(0.998995 0.00115522 0)
(0.999786 0.000353134 0)
(0.999081 -0.00178765 0)
(0.997235 -0.000634733 0)
(0.997012 -0.00100844 0)
(0.996477 -0.000443071 0)
(0.99537 0.0019446 0)
(0.995921 0.00273904 0)
(0.996579 0.00338706 0)
(0.996803 0.00497126 0)
(0.997197 0.00608659 0)
(0.998065 0.00657251 0)
(0.9987 0.00709574 0)
(1.00127 -0.000798845 0)
(0.998164 -0.00346985 0)
(0.995692 0.00264353 0)
(0.999259 -0.000194751 0)
(0.998302 1.75301e-05 0)
(0.997088 0.00181045 0)
(0.9991 -0.000518495 0)
(0.999126 0.000925894 0)
(0.999685 0.000498089 0)
(0.999097 -0.00164032 0)
(0.99738 -0.000587307 0)
(0.997112 -0.000628204 0)
(0.996806 -0.000296349 0)
(0.995756 0.00187186 0)
(0.996152 0.0028885 0)
(0.996889 0.003408 0)
(0.997203 0.00474116 0)
(0.99749 0.00591872 0)
(0.99828 0.00644579 0)
(0.998931 0.00688827 0)
(1.00118 -0.000674116 0)
(0.998371 -0.00340587 0)
(0.995896 0.0024176 0)
(0.999238 1.14143e-05 0)
(0.99848 -8.97416e-05 0)
(0.997138 0.00182789 0)
(0.999132 -0.000413413 0)
(0.99927 0.00070069 0)
(0.999607 0.000624699 0)
(0.999106 -0.00143528 0)
(0.997548 -0.000556479 0)
(0.997227 -0.000297997 0)
(0.99711 -0.000112376 0)
(0.996157 0.00179266 0)
(0.996406 0.00298393 0)
(0.997173 0.00346533 0)
(0.997593 0.00454133 0)
(0.997811 0.00570624 0)
(0.998503 0.00630002 0)
(0.999147 0.00669341 0)
(1.00109 -0.000557931 0)
(0.998572 -0.00331724 0)
(0.996116 0.00217571 0)
(0.999218 0.000207569 0)
(0.998657 -0.000179113 0)
(0.997202 0.00181695 0)
(0.999151 -0.000277472 0)
(0.99942 0.000492311 0)
(0.999555 0.000718379 0)
(0.999108 -0.00119225 0)
(0.99773 -0.000525532 0)
(0.99736 -1.95865e-05 0)
(0.997389 9.62345e-05 0)
(0.996565 0.0017177 0)
(0.996691 0.00302293 0)
(0.997439 0.00353444 0)
(0.997961 0.0043861 0)
(0.998151 0.0054691 0)
(0.998743 0.0061278 0)
(0.999355 0.00650355 0)
(1.00101 -0.000453447 0)
(0.998764 -0.00319576 0)
(0.996348 0.00191588 0)
(0.999202 0.000389096 0)
(0.998829 -0.000242812 0)
(0.99728 0.00177511 0)
(0.999157 -0.00012146 0)
(0.999573 0.000313522 0)
(0.999533 0.000777202 0)
(0.999105 -0.000930025 0)
(0.997922 -0.000479878 0)
(0.997516 0.000210877 0)
(0.997646 0.000320968 0)
(0.996969 0.00166046 0)
(0.997004 0.00301572 0)
(0.997697 0.00359148 0)
(0.998303 0.00427609 0)
(0.998501 0.00523377 0)
(0.999003 0.00592373 0)
(0.999563 0.00630285 0)
(1.00093 -0.000361699 0)
(0.998946 -0.00304024 0)
(0.99659 0.00164252 0)
(0.999192 0.000545302 0)
(0.998994 -0.000279409 0)
(0.997371 0.00170709 0)
(0.999152 4.65959e-05 0)
(0.999724 0.000171725 0)
(0.999542 0.000801469 0)
(0.999101 -0.000657031 0)
(0.998118 -0.000408153 0)
(0.997694 0.000393172 0)
(0.997886 0.000551889 0)
(0.997364 0.00162853 0)
(0.997344 0.00296745 0)
(0.997957 0.0036235 0)
(0.998619 0.00420092 0)
(0.998845 0.00502389 0)
(0.999279 0.00569911 0)
(0.999777 0.00608571 0)
(1.00085 -0.000281881 0)
(0.999114 -0.00285529 0)
(0.996839 0.00136301 0)
(0.999188 0.000672206 0)
(0.99915 -0.000290185 0)
(0.997476 0.00162345 0)
(0.999138 0.000219078 0)
(0.999867 7.50878e-05 0)
(0.99958 0.000798418 0)
(0.999101 -0.000386623 0)
(0.998312 -0.000312612 0)
(0.997895 0.000537637 0)
(0.998115 0.000785629 0)
(0.997739 0.00163174 0)
(0.997704 0.00288217 0)
(0.998228 0.00361924 0)
(0.998917 0.004138 0)
(0.999178 0.00484211 0)
(0.999561 0.00547575 0)
(0.999999 0.00585884 0)
(1.00077 -0.000215025 0)
(0.999266 -0.00264452 0)
(0.99709 0.00108507 0)
(0.999193 0.000766108 0)
(0.999296 -0.000276864 0)
(0.997593 0.00152674 0)
(0.999119 0.000388927 0)
(0.999999 2.30503e-05 0)
(0.999645 0.000780088 0)
(0.999107 -0.000128557 0)
(0.9985 -0.000196505 0)
(0.998118 0.000650121 0)
(0.998338 0.00100488 0)
(0.998087 0.00166994 0)
(0.998073 0.00277944 0)
(0.998516 0.00357991 0)
(0.999202 0.00408206 0)
(0.999497 0.004685 0)
(0.999844 0.0052669 0)
(1.00022 0.00563653 0)
(1.0007 -0.000160654 0)
(0.999401 -0.00241885 0)
(0.997341 0.000824966 0)
(0.999206 0.000818349 0)
(0.999431 -0.000240067 0)
(0.997721 0.00142533 0)
(0.999097 0.000540668 0)
(1.00012 8.01039e-06 0)
(0.999734 0.000757121 0)
(0.999122 0.000111263 0)
(0.998677 -6.24324e-05 0)
(0.998357 0.000738106 0)
(0.998562 0.00120013 0)
(0.998407 0.0017459 0)
(0.998442 0.00268466 0)
(0.998823 0.00349416 0)
(0.999482 0.00401731 0)
(0.999801 0.00454778 0)
(1.00012 0.00507253 0)
(1.00044 0.00543407 0)
(1.00064 -0.000115954 0)
(0.999519 -0.00218697 0)
(0.997585 0.000591326 0)
(0.999229 0.000832066 0)
(0.999556 -0.000186976 0)
(0.997855 0.00132999 0)
(0.999074 0.000673151 0)
(1.00022 2.54845e-05 0)
(0.999842 0.000741019 0)
(0.999146 0.000337435 0)
(0.998842 7.80085e-05 0)
(0.99861 0.000795694 0)
(0.998795 0.00136191 0)
(0.9987 0.00185311 0)
(0.998794 0.00262114 0)
(0.999143 0.00337436 0)
(0.999769 0.00392306 0)
(1.00009 0.00442054 0)
(1.0004 0.00488656 0)
(1.00066 0.0052349 0)
(1.00057 -8.06226e-05 0)
(0.999619 -0.00195649 0)
(0.99782 0.000397345 0)
(0.999261 0.000806161 0)
(0.99967 -0.000123875 0)
(0.997993 0.0012474 0)
(0.999052 0.000785213 0)
(1.00031 6.06385e-05 0)
(0.999967 0.000733406 0)
(0.99918 0.00055714 0)
(0.998987 0.000229147 0)
(0.99887 0.000822192 0)
(0.999043 0.00148142 0)
(0.998974 0.00197123 0)
(0.999119 0.00259031 0)
(0.999463 0.00325072 0)
(1.00007 0.00379342 0)
(1.00038 0.00429 0)
(1.00067 0.00471921 0)
(1.00088 0.00503802 0)
(1.00051 -5.18136e-05 0)
(0.999705 -0.00173586 0)
(0.998041 0.000249871 0)
(0.9993 0.000745682 0)
(0.999778 -6.52724e-05 0)
(0.998133 0.00118656 0)
(0.999029 0.000884183 0)
(1.00038 0.000104957 0)
(1.00011 0.000722699 0)
(0.999224 0.000768123 0)
(0.999107 0.000406033 0)
(0.999128 0.000837553 0)
(0.999312 0.00155208 0)
(0.999235 0.00208597 0)
(0.999414 0.00259544 0)
(0.999769 0.00314533 0)
(1.00037 0.00364075 0)
(1.00068 0.00413382 0)
(1.00093 0.00455833 0)
(1.00109 0.00484768 0)
(1.00046 -2.75648e-05 0)
(0.999776 -0.00152974 0)
(0.998246 0.000144424 0)
(0.999344 0.000666403 0)
(0.999882 -2.17937e-05 0)
(0.998274 0.00114697 0)
(0.999004 0.000975524 0)
(1.00044 0.000150408 0)
(1.00027 0.000705679 0)
(0.999285 0.000968459 0)
(0.9992 0.000615757 0)
(0.999372 0.000859373 0)
(0.9996 0.00155772 0)
(0.9995 0.00217156 0)
(0.99968 0.00263418 0)
(1.00005 0.00306968 0)
(1.00066 0.00349129 0)
(1.00098 0.00395136 0)
(1.0012 0.0043873 0)
(1.0013 0.00466902 0)
(1.00041 -7.01477e-06 0)
(0.999834 -0.00134107 0)
(0.998434 7.49808e-05 0)
(0.999389 0.000581948 0)
(0.999986 -1.3586e-06 0)
(0.998417 0.0011141 0)
(0.998975 0.00107372 0)
(1.00048 0.000198815 0)
(1.00044 0.000665751 0)
(0.999368 0.00114702 0)
(0.999265 0.000862983 0)
(0.999583 0.000913337 0)
(0.9999 0.00151863 0)
(0.999781 0.00220662 0)
(0.999927 0.00268067 0)
(1.00029 0.00302575 0)
(1.00093 0.00336039 0)
(1.00128 0.00375693 0)
(1.00148 0.00419231 0)
(1.00152 0.00449222 0)
(1.00036 1.2897e-05 0)
(0.999883 -0.0011743 0)
(0.998605 3.49307e-05 0)
(0.999433 0.000508351 0)
(1.00009 -7.69586e-06 0)
(0.998568 0.00107932 0)
(0.998942 0.00119008 0)
(1.0005 0.00026239 0)
(1.00063 0.000591185 0)
(0.999485 0.00128307 0)
(0.99931 0.00113015 0)
(0.999747 0.00100993 0)
(1.00019 0.00146894 0)
(1.00008 0.00218469 0)
(1.00017 0.00271233 0)
(1.00051 0.00301479 0)
(1.00117 0.00326007 0)
(1.00157 0.00357446 0)
(1.00177 0.00397436 0)
(1.00175 0.00429552 0)
(1.00031 3.15554e-05 0)
(0.999923 -0.00102658 0)
(0.99876 1.74443e-05 0)
(0.999471 0.000451488 0)
(1.00019 -3.29517e-05 0)
(0.99873 0.00102758 0)
(0.998908 0.00131379 0)
(1.00048 0.000358948 0)
(1.00082 0.000500001 0)
(0.999645 0.00136108 0)
(0.999346 0.00140235 0)
(0.999858 0.00116155 0)
(1.00047 0.00143328 0)
(1.0004 0.00210603 0)
(1.00043 0.00270235 0)
(1.0007 0.00301081 0)
(1.00137 0.0031905 0)
(1.00182 0.00342238 0)
(1.00205 0.00376114 0)
(1.00199 0.00407975 0)
(1.00027 5.02291e-05 0)
(0.999958 -0.000899141 0)
(0.998901 1.67283e-05 0)
(0.999503 0.000417906 0)
(1.00029 -6.8863e-05 0)
(0.998908 0.000949912 0)
(0.998883 0.00143149 0)
(1.00042 0.00050513 0)
(1.001 0.000409633 0)
(0.999855 0.00134729 0)
(0.999393 0.00165253 0)
(0.999916 0.00137465 0)
(1.00069 0.00144059 0)
(1.00073 0.00200478 0)
(1.00071 0.00264271 0)
(1.00089 0.00299336 0)
(1.00154 0.00314037 0)
(1.00204 0.00329584 0)
(1.00231 0.00356802 0)
(1.00224 0.00385598 0)
(1.00023 6.91389e-05 0)
(0.999987 -0.000792611 0)
(0.999034 2.7444e-05 0)
(0.999524 0.000408692 0)
(1.00037 -0.000101381 0)
(0.999103 0.000845009 0)
(0.998878 0.00152483 0)
(1.00033 0.000701704 0)
(1.00116 0.000361527 0)
(1.00011 0.00124227 0)
(0.999479 0.00183366 0)
(0.999931 0.00161991 0)
(1.00085 0.00150236 0)
(1.00104 0.00191239 0)
(1.001 0.00253539 0)
(1.00109 0.00294923 0)
(1.00168 0.00309919 0)
(1.00222 0.00319152 0)
(1.00255 0.00339898 0)
(1.00248 0.00364884 0)
(1.0002 8.69324e-05 0)
(1.00001 -0.000698273 0)
(0.99916 3.86603e-05 0)
(0.999538 0.000424376 0)
(1.00045 -0.000118734 0)
(0.999314 0.000718224 0)
(0.998906 0.00158025 0)
(1.00022 0.000924389 0)
(1.00126 0.000383857 0)
(1.0004 0.00109227 0)
(0.999625 0.00191549 0)
(0.999927 0.00186573 0)
(1.00094 0.00163141 0)
(1.0013 0.00185136 0)
(1.00131 0.00239882 0)
(1.00131 0.00285942 0)
(1.00181 0.00304953 0)
(1.00236 0.00310408 0)
(1.00275 0.00324241 0)
(1.00269 0.00346495 0)
(1.00017 0.000103971 0)
(1.00003 -0.000613487 0)
(0.999284 4.62898e-05 0)
(0.999547 0.000459962 0)
(1.0005 -0.000111551 0)
(0.999536 0.000580375 0)
(0.998972 0.00159215 0)
(1.00009 0.00114885 0)
(1.0013 0.000485318 0)
(1.00069 0.000947147 0)
(0.999839 0.00187689 0)
(0.99994 0.00206503 0)
(1.00097 0.00180666 0)
(1.0015 0.0018463 0)
(1.00161 0.00227248 0)
(1.00155 0.00273068 0)
(1.00194 0.00297399 0)
(1.00247 0.00302862 0)
(1.00292 0.00309405 0)
(1.00289 0.00328611 0)
(1.00015 0.000117513 0)
(1.00005 -0.0005285 0)
(0.999407 4.39879e-05 0)
(0.999555 0.000507202 0)
(1.00053 -7.12265e-05 0)
(0.999763 0.000439461 0)
(0.999085 0.00155124 0)
(0.999967 0.00135827 0)
(1.00128 0.000651351 0)
(1.00095 0.000850632 0)
(1.00011 0.00175218 0)
(1 0.00218074 0)
(1.00097 0.0019852 0)
(1.00164 0.00189734 0)
(1.00187 0.00217976 0)
(1.0018 0.00258943 0)
(1.0021 0.00286358 0)
(1.00255 0.00295252 0)
(1.00305 0.00296585 0)
(1.00307 0.0031028 0)
(1.00013 0.000125908 0)
(1.00007 -0.000437566 0)
(0.999531 2.9697e-05 0)
(0.999567 0.000555904 0)
(1.00054 1.07524e-05 0)
(0.999983 0.000313953 0)
(0.999247 0.00145158 0)
(0.999873 0.00152755 0)
(1.00121 0.00085512 0)
(1.00115 0.000818829 0)
(1.00042 0.0016011 0)
(1.00012 0.00219422 0)
(1.00095 0.00213883 0)
(1.00171 0.00198202 0)
(1.00208 0.00212731 0)
(1.00205 0.00246374 0)
(1.00227 0.00273023 0)
(1.00264 0.00285551 0)
(1.00314 0.00285963 0)
(1.00323 0.00292474 0)
(1.00011 0.000129065 0)
(1.00007 -0.000342652 0)
(0.999652 1.63919e-05 0)
(0.999592 0.000588628 0)
(1.00053 0.000130142 0)
(1.00018 0.000225226 0)
(0.999452 0.00131109 0)
(0.999824 0.00163478 0)
(1.00111 0.00107257 0)
(1.0013 0.000860747 0)
(1.00073 0.00145446 0)
(1.00031 0.00211801 0)
(1.00096 0.00223096 0)
(1.00174 0.00207547 0)
(1.00224 0.00210609 0)
(1.00226 0.00236155 0)
(1.00245 0.002602 0)
(1.00274 0.00273525 0)
(1.0032 0.00276111 0)
(1.00334 0.00276968 0)
(1.0001 0.000128033 0)
(1.00008 -0.000246747 0)
(0.999767 9.28523e-06 0)
(0.999631 0.000602871 0)
(1.0005 0.000267437 0)
(1.00035 0.000196439 0)
(0.999686 0.00114881 0)
(0.999828 0.00167191 0)
(1.001 0.00127059 0)
(1.00137 0.00097118 0)
(1.00101 0.00134966 0)
(1.00054 0.00199427 0)
(1.00102 0.00224265 0)
(1.00174 0.00215238 0)
(1.00235 0.00210759 0)
(1.00245 0.00227263 0)
(1.00262 0.00248717 0)
(1.00285 0.00260626 0)
(1.00326 0.00264895 0)
(1.00342 0.00264318 0)
(1.00009 0.000122483 0)
(1.00007 -0.000151514 0)
(0.999874 1.29463e-05 0)
(0.999687 0.000598201 0)
(1.00047 0.000401676 0)
(1.00047 0.000234553 0)
(0.999931 0.000994349 0)
(0.99989 0.00163859 0)
(1.00091 0.00142898 0)
(1.0014 0.00110888 0)
(1.00124 0.00130655 0)
(1.0008 0.00186039 0)
(1.00112 0.00218651 0)