/*--------------------------------*- C++ -*----------------------------------*\
| =========                 |                                                 |
| \\      /  F ield         | OpenFOAM: The Open Source CFD Toolbox           |
|  \\    /   O peration     | Version:  2106                                  |
|   \\  /    A nd           | Website:  www.openfoam.com                      |
|    \\/     M anipulation  |                                                 |
\*---------------------------------------------------------------------------*/
FoamFile
{
    version     2.0;
    format      ascii;
    arch        "LSB;label=32;scalar=64";
    class       volScalarField;
    location    "0.745";
    object      p;
}
// * * * * * * * * * * * * * * * * * * * * * * * * * * * * * * * * * * * * * //

dimensions      [0 2 -2 0 0 0 0];

internalField   nonuniform List<scalar> 
9600
(
1.4813e-10
0.00271872
0.00274411
0.00402792
0.00258167
0.00274498
0.0032354
0.00250252
0.00277299
0.00267115
0.0027551
0.00217012
0.0018824
0.00219984
0.00093915
0.00264635
0.00212869
0.00318351
0.0041353
0.00670462
7.99524e-07
0.00272093
0.0027436
0.00402765
0.00258468
0.0027437
0.00323094
0.00250065
0.00279488
0.00266569
0.00277421
0.00216325
0.00190309
0.00218818
0.000968191
0.00258316
0.00217073
0.00315132
0.00415716
0.00647238
2.85027e-06
0.00272522
0.00274303
0.00402821
0.00258873
0.00273774
0.00322452
0.00250074
0.0028087
0.00265919
0.0027852
0.00215477
0.00192291
0.00216995
0.000999719
0.00252692
0.00221736
0.00310276
0.00416451
0.00617491
6.69516e-06
0.00273107
0.00274253
0.00402926
0.00259322
0.00272811
0.0032182
0.0025032
0.00281968
0.00265159
0.00279234
0.00214482
0.00194401
0.00214745
0.00103891
0.00246841
0.00225478
0.00305042
0.0041461
0.00588773
1.29472e-05
0.00273771
0.00274188
0.00403015
0.00259841
0.00271625
0.00321198
0.00250714
0.00282819
0.00264381
0.00279644
0.00213374
0.00196816
0.00212294
0.00108276
0.00240685
0.00228889
0.00299989
0.00410147
0.0056186
2.18058e-05
0.00274419
0.00274083
0.00403033
0.00260423
0.00270336
0.00320593
0.00251168
0.00283482
0.00263605
0.00279836
0.00212233
0.00199457
0.00209754
0.00113035
0.00234525
0.00232188
0.00295036
0.00403251
0.00536981
3.3029e-05
0.00274997
0.0027393
0.00402942
0.00261037
0.00269047
0.00320037
0.00251614
0.00284015
0.00262822
0.00279899
0.00211055
0.00202211
0.00207238
0.00117994
0.00228759
0.00235071
0.00290166
0.00394448
0.00513766
4.61725e-05
0.00275509
0.00273731
0.00402726
0.00261677
0.0026783
0.00319541
0.00252014
0.00284466
0.00262007
0.00279916
0.00209831
0.00205013
0.00204808
0.00123026
0.00223596
0.00237188
0.00285828
0.00384131
0.00491512
6.08049e-05
0.00275986
0.00273505
0.00402391
0.00262355
0.002667
0.00319093
0.00252358
0.0028487
0.00261146
0.00279938
0.00208581
0.00207802
0.00202515
0.00128013
0.00219089
0.00238408
0.00282358
0.00372356
0.0046968
7.66155e-05
0.00276466
0.00273271
0.00401957
0.00263086
0.00265635
0.00318677
0.00252649
0.00285249
0.00260233
0.00279995
0.00207323
0.00210528
0.00200429
0.00132784
0.00215309
0.0023872
0.00279759
0.00359265
0.00448075
9.34307e-05
0.00276971
0.00273053
0.00401438
0.00263875
0.00264604
0.00318284
0.00252888
0.00285619
0.00259273
0.00280103
0.00206077
0.0021315
0.00198621
0.00137164
0.00212346
0.0023806
0.00277839
0.00345298
0.00426539
0.000111178
0.00277503
0.00272867
0.00400848
0.00264724
0.00263577
0.00317908
0.0025308
0.00285992
0.00258277
0.00280257
0.00204869
0.00215626
0.00197151
0.00141016
0.0021024
0.00236318
0.00276339
0.0033101
0.00404788
0.000129844
0.00278052
0.00272728
0.00400196
0.0026563
0.00262526
0.00317548
0.00253223
0.00286379
0.0025726
0.00280414
0.00203735
0.00217897
0.00196089
0.00144227
0.00208921
0.00233355
0.00274923
0.00316909
0.00382565
0.000149445
0.00278598
0.00272648
0.00399488
0.00266594
0.00261429
0.00317207
0.0025332
0.00286785
0.0025624
0.00280534
0.00202719
0.00219887
0.00195515
0.00146708
0.00208273
0.00227138
0.00273101
0.00303414
0.00359771
0.000170026
0.00279124
0.00272637
0.00398726
0.0026762
0.00260267
0.00316889
0.00253371
0.00287209
0.00255237
0.00280578
0.00201885
0.00221518
0.00195487
0.00148406
0.00208201
0.00222532
0.0027028
0.00290832
0.0033651
0.000191649
0.00279609
0.00272706
0.00397909
0.00268714
0.00259022
0.003166
0.00253377
0.00287651
0.0025427
0.00280505
0.00201308
0.00222713
0.00196028
0.00149317
0.00208532
0.00217662
0.00265946
0.00279296
0.00313073
0.0002144
0.00280038
0.00272864
0.00397032
0.00269886
0.00257682
0.00316345
0.00253342
0.002881
0.00253371
0.0028026
0.00201065
0.00223409
0.00197126
0.001495
0.00209015
0.00212685
0.00259791
0.0026874
0.00289912
0.000238386
0.0028039
0.00273118
0.00396091
0.00271147
0.00256232
0.0031613
0.00253267
0.00288535
0.00252591
0.00279769
0.00201212
0.0022357
0.00198731
0.00149058
0.00209339
0.00207908
0.00251704
0.00258974
0.00267558
0.000263731
0.00280648
0.00273476
0.00395079
0.00272507
0.00254662
0.00315955
0.00253159
0.00288934
0.00251983
0.0027898
0.00201783
0.0022318
0.00200755
0.00148129
0.00209156
0.00203583
0.00241822
0.00249637
0.00246547
0.00029058
0.00280788
0.00273947
0.00393989
0.00273977
0.0025295
0.00315817
0.00253042
0.00289257
0.00251593
0.00277851
0.00202799
0.00222264
0.00203058
0.00146921
0.00208131
0.00199789
0.00230478
0.00240252
0.00227315
0.000319092
0.00280787
0.00274537
0.00392815
0.00275565
0.00251096
0.00315714
0.00252949
0.00289448
0.00251486
0.00276343
0.00204251
0.0022089
0.00205453
0.00145654
0.00206014
0.00196496
0.00218129
0.00230361
0.00210129
0.000349439
0.0028062
0.00275253
0.00391549
0.00277279
0.00249127
0.00315635
0.00252908
0.00289446
0.00251721
0.00274437
0.00206087
0.00219171
0.00207736
0.00144476
0.00202642
0.00193568
0.00205277
0.00219616
0.00195067
0.000381811
0.00280259
0.00276098
0.00390189
0.00279125
0.00247037
0.00315557
0.00252964
0.002892
0.00252332
0.00272144
0.00208219
0.00217246
0.00209717
0.00143451
0.00198004
0.00190848
0.00192406
0.00207833
0.0018196
0.000416411
0.00279676
0.00277074
0.00388732
0.00281102
0.00244839
0.00315444
0.00253182
0.00288662
0.00253324
0.0026952
0.00210533
0.00215247
0.00211219
0.00142624
0.00192179
0.00188103
0.00179955
0.00194999
0.00170421
0.000453446
0.00278842
0.00278179
0.0038718
0.00283205
0.00242558
0.00315259
0.00253624
0.00287787
0.00254676
0.00266657
0.00212895
0.00213275
0.00212086
0.00142044
0.00185268
0.00185025
0.00168317
0.00181289
0.00159938
0.000493142
0.00277728
0.00279402
0.00385546
0.00285427
0.0024023
0.00314953
0.00254339
0.00286558
0.00256345
0.00263662
0.00215168
0.00211411
0.00212187
0.00141681
0.00177451
0.00181311
0.00157762
0.00167039
0.00150028
0.00053573
0.00276309
0.00280726
0.00383669
0.0028776
0.00237902
0.00314465
0.0025537
0.00284983
0.00258256
0.00260646
0.00217246
0.00209726
0.00211426
0.00141422
0.00169027
0.00176711
0.0014833
0.00152634
0.00140357
0.000581427
0.00274562
0.00282135
0.00381917
0.00290175
0.00235633
0.00313746
0.00256748
0.00283089
0.00260318
0.00257706
0.00219032
0.0020825
0.00209761
0.00141135
0.00160291
0.00171093
0.00139913
0.00138416
0.001307
0.000630453
0.00272472
0.00283597
0.00380142
0.0029264
0.0023349
0.00312757
0.00258471
0.00280933
0.00262433
0.00254906
0.00220428
0.00206978
0.00207213
0.0014069
0.00151447
0.00164465
0.00132375
0.00124678
0.00120828
0.000683049
0.00270034
0.00285062
0.00378377
0.0029512
0.00231534
0.00311468
0.00260529
0.00278576
0.00264493
0.00252307
0.00221349
0.00205885
0.00203847
0.00139912
0.0014244
0.00156939
0.00125508
0.00111707
0.00110511
0.00073941
0.00267256
0.00286464
0.0037666
0.00297578
0.00229828
0.00309874
0.00262903
0.00276085
0.00266401
0.0024997
0.00221682
0.00204913
0.00199819
0.00138642
0.0013228
0.0014873
0.00119029
0.000997333
0.000996716
0.000799684
0.00264158
0.00287723
0.00375033
0.00299986
0.00228426
0.00307984
0.0026553
0.00273539
0.00268061
0.00247941
0.00221337
0.00203962
0.00195378
0.0013682
0.00125061
0.00140187
0.00112692
0.000888462
0.000884507
0.000864018
0.00260778
0.00288752
0.00373531
0.00302327
0.0022736
0.00305827
0.00268343
0.00270927
0.00269382
0.00246221
0.0022029
0.00202917
0.00190778
0.00134365
0.00118316
0.0013168
0.00106399
0.00078961
0.000771001
0.000932468
0.0025717
0.00289453
0.00372176
0.00304602
0.00226638
0.00303457
0.00271277
0.00268536
0.00270307
0.00244753
0.00218542
0.00201695
0.00186225
0.00131273
0.00112021
0.0012353
0.00100268
0.000699074
0.000658413
0.00100504
0.00253399
0.00289726
0.0037099
0.00306822
0.00226238
0.00300948
0.00274273
0.00266281
0.00270775
0.00243484
0.00216124
0.00200228
0.00181924
0.00127639
0.00105811
0.00115799
0.00094538
0.000616377
0.000548183
0.00108171
0.00249541
0.00289483
0.0036998
0.00309003
0.00226123
0.00298368
0.00277287
0.00264178
0.00270743
0.00242413
0.00213078
0.00198376
0.00178084
0.00123681
0.000992064
0.00108243
0.000895051
0.000544104
0.000441624
0.0011623
0.00245676
0.00288652
0.00369134
0.00311178
0.00226237
0.00295783
0.00280277
0.00262204
0.0027023
0.00241545
0.0020946
0.00195976
0.00174802
0.0011971
0.000920513
0.00100539
0.000852152
0.000486771
0.000341855
0.00124657
0.00241891
0.00287177
0.00368427
0.00313393
0.00226513
0.00293245
0.00283235
0.00260294
0.00269224
0.0024092
0.00205411
0.00192829
0.00172014
0.00116149
0.000846065
0.000922351
0.000812253
0.000447105
0.000254481
0.00133415
0.00238279
0.00285023
0.00367813
0.00315695
0.00226887
0.00290761
0.00286191
0.00258358
0.00267648
0.00240672
0.00201181
0.00188715
0.00169549
0.00113373
0.000772376
0.000830251
0.000769642
0.0004241
0.00018592
0.0014246
0.00234934
0.00282175
0.00367224
0.00318152
0.00227281
0.00288304
0.00289221
0.00256353
0.00265383
0.00240954
0.00197121
0.0018346
0.00167094
0.0011154
0.000701879
0.000729603
0.000718235
0.000412511
0.000141538
0.00151731
0.00231917
0.00278647
0.00366564
0.0032084
0.00227623
0.00285806
0.00292439
0.00254336
0.00262199
0.00241748
0.00193759
0.0017707
0.00164048
0.00110803
0.000641952
0.000624745
0.000653074
0.000404407
0.000122471
0.00161143
0.00229414
0.00274498
0.00365714
0.00323829
0.00227866
0.00283131
0.00295952
0.00252417
0.00257807
0.00242852
0.00191703
0.00169865
0.00159711
0.00110909
0.00060115
0.000522301
0.000572998
0.000390561
0.000123311
0.00170589
0.00227547
0.00269817
0.00364516
0.00327212
0.00228001
0.00280071
0.00299824
0.00250878
0.00252038
0.00243835
0.00191394
0.00162425
0.00153663
0.00111269
0.000583004
0.000430012
0.000481603
0.000364182
0.000133963
0.0017996
0.0022644
0.00264721
0.0036277
0.00331102
0.00228099
0.00276299
0.00304011
0.00250219
0.00244893
0.0024398
0.00193005
0.0015565
0.00145884
0.00110667
0.000582907
0.000357688
0.000386402
0.000322944
0.000143455
0.00189137
0.00226226
0.00259358
0.00360251
0.00335565
0.00228352
0.00271439
0.00308295
0.00251059
0.00236543
0.0024244
0.00196386
0.00150604
0.00136813
0.00108011
0.000593849
0.000311698
0.000296216
0.000268529
0.00014486
0.00198001
0.00226962
0.00253943
0.0035673
0.00340573
0.00229092
0.00265225
0.00312192
0.00253912
0.00227596
0.002385
0.00200915
0.00148086
0.00127023
0.00102848
0.000604787
0.00029046
0.000220809
0.000206269
0.000135869
0.00206455
0.00228692
0.00248727
0.00352005
0.00346043
0.00230746
0.00257555
0.00314931
0.00259233
0.00219043
0.00231831
0.00205458
0.0014846
0.00117702
0.000953222
0.000602572
0.000287185
0.000168121
0.00014419
0.000116702
0.00214425
0.00231433
0.00243984
0.00345941
0.00351656
0.00233788
0.00248506
0.00315592
0.00266925
0.00212277
0.00222528
0.002087
0.00151612
0.00107713
0.000859648
0.000577595
0.000292801
0.00014065
9.11823e-05
8.8423e-05
0.00221866
0.00235046
0.0024002
0.00338488
0.00356875
0.00238717
0.00238634
0.00313402
0.00276629
0.00208546
0.00211277
0.00209549
0.00157108
0.0010396
0.000759978
0.000527622
0.000294636
0.00013469
5.68025e-05
5.53119e-05
0.00228745
0.00239614
0.0023712
0.00329732
0.0036111
0.00245914
0.00228681
0.00307767
0.00286213
0.00208589
0.00199553
0.00207005
0.00164425
0.00103974
0.000672204
0.000459529
0.000281465
0.000140488
4.74636e-05
2.92406e-05
0.00235032
0.00244326
0.00235509
0.00319972
0.00363632
0.00255254
0.00219863
0.00298364
0.00294268
0.00212696
0.00189315
0.00201164
0.00169939
0.00107161
0.000609914
0.000382891
0.000250636
0.000145506
5.95197e-05
2.45928e-05
0.00240729
0.00249385
0.00235349
0.00309684
0.00363892
0.00266337
0.00213399
0.00285526
0.0029938
0.00220604
0.00182072
0.00192724
0.00173151
0.00112567
0.000577492
0.000307236
0.000206243
0.000142453
8.13877e-05
4.63362e-05
0.0024587
0.00254567
0.00236713
0.00299422
0.00361624
0.00277999
0.00210141
0.00270454
0.00300371
0.00231067
0.00178664
0.00183401
0.00173594
0.00118701
0.000575324
0.000241339
0.000152209
0.000130932
0.000102939
8.59171e-05
0.00250531
0.00259637
0.00239583
0.00289751
0.00356681
0.00288961
0.00210497
0.00254954
0.00296677
0.00240859
0.00179291
0.00175014
0.00171615
0.00124188
0.000599435
0.000193833
9.18637e-05
0.000111107
0.00012172
0.000132464
0.00254809
0.002644
0.00243819
0.00281207
0.00349037
0.00298184
0.00214483
0.00241602
0.00288461
0.00248536
0.00183484
0.0016921
0.00168393
0.00128726
0.000641747
0.000170158
3.15379e-05
8.04843e-05
0.000138289
0.000181777
0.0025881
0.00268715
0.0024908
0.00274248
0.00339076
0.00304999
0.00221533
0.00230976
0.00277109
0.00252508
0.0018959
0.00166278
0.00165308
0.0013268
0.000696504
0.000170627
-1.93369e-05
3.81585e-05
0.000148713
0.000234782
0.00262647
0.00272498
0.00254872
0.00269169
0.00327805
0.00308831
0.00230332
0.00223738
0.00264744
0.0025255
0.00195513
0.0016579
0.0016277
0.00136438
0.000763547
0.000193898
-5.32497e-05
-1.09728e-05
0.000145034
0.000288698
0.00266384
0.00275725
0.00260643
0.0026607
0.00316182
0.00309413
0.00239436
0.00220143
0.00252887
0.00249223
0.00199827
0.0016658
0.00161047
0.001401
0.000844436
0.000240846
-6.66163e-05
-5.67102e-05
0.000123695
0.00033389
0.00270035
0.00278477
0.0026594
0.00264892
0.00305505
0.00306795
0.00247241
0.0021978
0.00242658
0.00243883
0.00202291
0.0016751
0.00159737
0.00143641
0.000937029
0.000314867
-5.6862e-05
-9.00413e-05
9.07581e-05
0.000358766
0.00273595
0.00280831
0.00270535
0.00265229
0.00296088
0.00301659
0.00253109
0.00221686
0.00234895
0.00237802
0.00203181
0.00168232
0.00158159
0.00146536
0.00103743
0.000418265
-1.88075e-05
-0.000106035
5.80489e-05
0.000360361
0.0027703
0.00282891
0.00274334
0.00266468
0.00288286
0.00295155
0.00256552
0.00224658
0.00229751
0.00232122
0.00203183
0.0016881
0.00156184
0.00148066
0.00113632
0.000547631
5.51465e-05
-0.000100112
3.44079e-05
0.000347568
0.00280287
0.00284786
0.00277355
0.00268045
0.0028216
0.00288297
0.00257582
0.00227436
0.00226784
0.0022744
0.00202749
0.00169725
0.00154238
0.00147853
0.00121956
0.000694034
0.000169695
-6.35252e-05
2.59265e-05
0.000333617
0.00283302
0.00286496
0.00279501
0.00269568
0.00277513
0.00281758
0.00256759
0.00229319
0.00225077
0.00224031
0.00202442
0.00171011
0.00153026
0.00146674
0.00127784
0.000838594
0.000319369
1.49409e-05
4.09815e-05
0.000327827
0.00286007
0.00288024
0.00281253
0.00270832
0.00273954
0.00275917
0.0025485
0.00230156
0.00223824
0.00221634
0.00202629
0.0017285
0.00152854
0.00145422
0.00131524
0.000964507
0.000490251
0.000139404
9.15968e-05
0.000339743
0.00288347
0.00289342
0.00282553
0.00271725
0.00271077
0.00270858
0.00252482
0.0023001
0.00222535
0.00219745
0.00203283
0.00175553
0.00153862
0.00144864
0.00134328
0.00106815
0.000660677
0.000301264
0.000187488
0.000381887
0.00290287
0.00290377
0.00283463
0.00272231
0.00268645
0.00266512
0.00250047
0.00229152
0.00220922
0.00218066
0.00204055
0.00178989
0.001565
0.00145395
0.00137028
0.00115908
0.000819855
0.000485324
0.000329029
0.000465277
0.00291801
0.00291113
0.00284014
0.0027242
0.00266379
0.00262598
0.00247614
0.00227984
0.00218937
0.0021622
0.00204749
0.00182741
0.00160755
0.00147716
0.00140267
0.00124683
0.000971986
0.000678913
0.000509621
0.000596168
0.00292874
0.00291503
0.00284211
0.00272323
0.00264211
0.00258916
0.00245103
0.00226635
0.00216682
0.00213872
0.00205113
0.00186419
0.00166044
0.0015233
0.00144966
0.00133875
0.00112789
0.00088369
0.000725209
0.000777607
0.0029351
0.00291512
0.0028403
0.00271962
0.00262104
0.00255333
0.00242419
0.00225045
0.00214225
0.00210905
0.00204649
0.00189729
0.00171686
0.00158701
0.00151993
0.00144467
0.00129755
0.00111001
0.000979179
0.00101581
0.0029371
0.00291132
0.00283466
0.00271315
0.00260034
0.00251797
0.00239436
0.00223095
0.00211552
0.00207347
0.00202834
0.00192002
0.00177105
0.00165929
0.00161271
0.00157541
0.00149351
0.00137352
0.00128592
0.0013266
0.00293488
0.00290358
0.00282533
0.00270363
0.00257908
0.00248288
0.00236139
0.00220627
0.0020854
0.00203246
0.0019951
0.00192316
0.0018148
0.00172797
0.0017171
0.00173597
0.00172992
0.00169645
0.00167491
0.00174121
0.002928
0.002892
0.00281245
0.00269108
0.00255677
0.00244717
0.00232534
0.00217649
0.00205008
0.00198577
0.00194855
0.00190195
0.00183913
0.00178644
0.00181381
0.00191019
0.00201084
0.00209967
0.00219116
0.00232176
0.00291781
0.0028769
0.00279591
0.00267571
0.00253349
0.00241049
0.00228536
0.00214136
0.00201004
0.00193373
0.00189346
0.00185856
0.00183594
0.00183007
0.00189971
0.00208352
0.00232462
0.00258816
0.00286259
0.0031262
0.00290443
0.00285909
0.00277592
0.00265733
0.00250935
0.00237349
0.00224196
0.00209982
0.00196569
0.00187898
0.00183898
0.00181578
0.00182412
0.00188087
0.00202444
0.00232469
0.00274462
0.00318182
0.00356671
0.00383481
0.00288816
0.00283921
0.00275343
0.00263592
0.0024842
0.00233713
0.00219787
0.00205363
0.0019169
0.00182336
0.00178843
0.00179802
0.00185802
0.00199644
0.00223787
0.00262521
0.00313234
0.0036376
0.00404394
0.004285
0.00287039
0.00281771
0.00272925
0.00261213
0.00245766
0.00230172
0.00215573
0.00201137
0.00187161
0.00177099
0.00174283
0.00180119
0.00194751
0.00218946
0.00253423
0.00296066
0.00344837
0.00391635
0.00428121
0.00448704
0.00285188
0.00279621
0.0027043
0.0025874
0.00243054
0.00226663
0.00211577
0.00197802
0.00185194
0.00175596
0.00171499
0.0017726
0.00196405
0.00228603
0.00273475
0.00326833
0.00382513
0.00433473
0.00471145
0.00488994
0.00283384
0.00277601
0.00268056
0.00256299
0.00240553
0.0022353
0.00207608
0.00194026
0.00183707
0.00179843
0.00184065
0.00196166
0.00217111
0.00244549
0.00277758
0.00318505
0.0036405
0.00409423
0.00446489
0.0046747
0.0028175
0.00275811
0.00266046
0.00254069
0.00238508
0.00221444
0.00205433
0.00192274
0.00181633
0.00174935
0.00176404
0.00188589
0.00214899
0.00255494
0.00304543
0.00357368
0.00409391
0.00455402
0.00489054
0.00503409
0.00280347
0.00274163
0.0026407
0.00251704
0.00235923
0.00218467
0.00201632
0.00188201
0.00179297
0.00176166
0.00182218
0.00198306
0.00225005
0.00262903
0.00308161
0.00356072
0.00403045
0.00444642
0.00475746
0.00489601
0.00963492
0.00574142
-0.000907541
-0.00611371
-0.00724161
-0.00593244
-0.00427711
-0.00295257
-0.00201031
-0.00133417
-0.000840742
-0.000497439
-0.000248378
2.29169e-05
0.000350693
0.000624452
0.000830578
0.00105844
0.00127587
0.00144041
0.00162671
0.00187787
0.00213694
0.00235022
0.00254659
0.00278266
0.0030373
0.00326698
0.00349072
0.00373071
0.0039767
0.00422774
0.00448505
0.00473183
0.00497343
0.00522951
0.00549139
0.00575125
0.00602335
0.00631018
0.00659944
0.00688508
0.00717952
0.0074731
0.00775472
0.0080439
0.00834373
0.00864577
0.00894873
0.00925297
0.00956471
0.00988133
0.0101951
0.0105163
0.010843
0.0111694
0.0114989
0.0118371
0.0121865
0.012537
0.0128961
0.0132792
0.0136909
0.014116
0.0145383
0.0149493
0.0153791
0.0158302
0.0162739
0.0167297
0.0172296
0.0177485
0.0182555
0.0187702
0.0192976
0.0198314
0.0203713
0.0209297
0.0215028
0.0220914
0.0226942
0.0233126
0.0239456
0.0245899
0.0252506
0.0259229
0.0266102
0.0273085
0.0280186
0.0287484
0.0294842
0.0302428
0.0310052
0.0317834
0.0325825
0.0333736
0.0342072
0.0350223
0.0357846
0.0365979
0.00905231
0.00559795
-0.000820647
-0.00596485
-0.00715242
-0.00589134
-0.00425282
-0.00293564
-0.00199752
-0.00132363
-0.000831429
-0.000489105
-0.00024113
2.91815e-05
0.000356342
0.000629534
0.00083498
0.00106239
0.00127951
0.0014436
0.00162946
0.00188039
0.00213932
0.00235241
0.00254853
0.00278443
0.00303897
0.00326852
0.00349212
0.003732
0.0039779
0.00422884
0.00448609
0.00473282
0.00497433
0.00523036
0.00549219
0.00575201
0.00602407
0.00631088
0.00660012
0.00688573
0.00718014
0.00747371
0.0077553
0.00804446
0.00834428
0.0086463
0.00894924
0.00925346
0.00956517
0.00988177
0.0101955
0.0105167
0.0108434
0.0111698
0.0114993
0.0118374
0.0121868
0.0125373
0.0128964
0.0132795
0.0136912
0.0141163
0.0145385
0.0149495
0.0153792
0.0158303
0.016274
0.0167298
0.0172297
0.0177486
0.0182556
0.0187703
0.0192977
0.0198315
0.0203713
0.0209297
0.0215028
0.0220914
0.0226943
0.0233126
0.0239456
0.0245899
0.0252506
0.025923
0.0266103
0.0273085
0.0280186
0.0287484
0.0294843
0.0302428
0.0310052
0.0317834
0.0325825
0.0333736
0.0342072
0.0350223
0.0357846
0.0365979
0.00845171
0.00542282
-0.000646069
-0.00567554
-0.00698771
-0.00582959
-0.00422346
-0.00291515
-0.00198202
-0.0013119
-0.000822153
-0.00048114
-0.000233969
3.56339e-05
0.000362194
0.000634708
0.000839408
0.00106635
0.00128311
0.00144672
0.00163216
0.00188283
0.00214158
0.00235444
0.00255033
0.00278609
0.00304055
0.00326995
0.0034934
0.0037332
0.00397901
0.00422986
0.00448705
0.00473372
0.00497515
0.00523111
0.00549291
0.00575267
0.00602469
0.00631148
0.00660071
0.00688629
0.00718068
0.00747425
0.00775581
0.00804495
0.00834476
0.00864676
0.00894969
0.00925389
0.00956558
0.00988217
0.0101959
0.0105171
0.0108437
0.0111701
0.0114996
0.0118377
0.0121871
0.0125375
0.0128966
0.0132797
0.0136914
0.0141164
0.0145387
0.0149497
0.0153794
0.0158305
0.0162741
0.0167299
0.0172298
0.0177487
0.0182557
0.0187703
0.0192977
0.0198315
0.0203714
0.0209298
0.0215029
0.0220915
0.0226943
0.0233126
0.0239456
0.0245899
0.0252507
0.025923
0.0266103
0.0273085
0.0280186
0.0287484
0.0294843
0.0302428
0.0310052
0.0317834
0.0325825
0.0333736
0.0342072
0.0350223
0.0357846
0.036598
0.00787656
0.00524984
-0.000409008
-0.00529557
-0.00675337
-0.0057378
-0.00417899
-0.00288378
-0.00195865
-0.00129537
-0.000810657
-0.000472131
-0.000225707
4.33492e-05
0.000369135
0.000640908
0.000844947
0.00107133
0.00128768
0.0014509
0.0016359
0.00188605
0.00214434
0.0023569
0.00255257
0.00278815
0.00304243
0.00327164
0.00349493
0.00373463
0.00398032
0.00423105
0.00448817
0.00473475
0.00497608
0.00523197
0.0054937
0.00575338
0.00602534
0.00631211
0.00660132
0.00688688
0.00718125
0.00747481
0.00775633
0.00804543
0.00834524
0.00864723
0.00895015
0.00925433
0.009566
0.00988258
0.0101963
0.0105175
0.0108441
0.0111705
0.0114999
0.011838
0.0121874
0.0125378
0.0128969
0.0132799
0.0136916
0.0141167
0.0145389
0.0149498
0.0153796
0.0158306
0.0162743
0.01673
0.0172299
0.0177489
0.0182558
0.0187704
0.0192978
0.0198316
0.0203715
0.0209298
0.0215029
0.0220915
0.0226943
0.0233126
0.0239457
0.02459
0.0252507
0.025923
0.0266103
0.0273085
0.0280186
0.0287484
0.0294843
0.0302428
0.0310052
0.0317834
0.0325826
0.0333736
0.0342072
0.0350223
0.0357847
0.0365982
0.00732384
0.0050691
-0.000157364
-0.00488752
-0.00649069
-0.00563183
-0.00412708
-0.002845
-0.00192803
-0.00127331
-0.000795844
-0.000461062
-0.00021537
5.31622e-05
0.000377654
0.000648457
0.000851927
0.00107761
0.00129351
0.00145675
0.00164148
0.00189072
0.0021481
0.00236028
0.00255579
0.00279107
0.00304496
0.00327386
0.00349699
0.00373657
0.0039821
0.00423266
0.00448965
0.00473612
0.00497732
0.00523309
0.00549469
0.00575425
0.00602611
0.00631282
0.00660202
0.00688754
0.00718188
0.00747541
0.00775688
0.00804596
0.00834575
0.00864774
0.00895066
0.00925484
0.00956649
0.00988304
0.0101967
0.0105179
0.0108445
0.0111709
0.0115003
0.0118383
0.0121877
0.0125381
0.0128972
0.0132802
0.0136918
0.0141169
0.0145392
0.0149501
0.0153798
0.0158308
0.0162744
0.0167301
0.01723
0.017749
0.0182559
0.0187705
0.0192979
0.0198317
0.0203715
0.0209299
0.021503
0.0220916
0.0226944
0.0233127
0.0239457
0.02459
0.0252507
0.025923
0.0266103
0.0273086
0.0280187
0.0287484
0.0294843
0.0302428
0.0310052
0.0317834
0.0325826
0.0333736
0.0342072
0.0350224
0.0357848
0.0365984
0.00679134
0.00486284
8.13838e-05
-0.00447293
-0.00621254
-0.0055188
-0.00407366
-0.00280362
-0.00189331
-0.00124737
-0.000778262
-0.000447987
-0.000203002
6.49359e-05
0.000387579
0.000657174
0.000860159
0.00108492
0.00130036
0.00146421
0.00164906
0.00189706
0.0021531
0.00236489
0.00256037
0.00279519
0.00304838
0.00327683
0.00349978
0.0037392
0.00398449
0.00423481
0.00449165
0.00473801
0.00497907
0.00523462
0.005496
0.00575536
0.00602707
0.00631368
0.00660284
0.00688832
0.0071826
0.00747607
0.00775749
0.00804654
0.0083463
0.00864827
0.00895122
0.00925542
0.00956705
0.00988357
0.0101972
0.0105184
0.010845
0.0111714
0.0115008
0.0118387
0.0121881
0.0125385
0.0128976
0.0132806
0.0136922
0.0141172
0.0145395
0.0149504
0.01538
0.0158311
0.0162747
0.0167303
0.0172302
0.0177492
0.0182561
0.0187707
0.0192981
0.0198318
0.0203716
0.02093
0.0215031
0.0220916
0.0226944
0.0233127
0.0239458
0.02459
0.0252508
0.0259231
0.0266103
0.0273086
0.0280187
0.0287484
0.0294843
0.0302428
0.0310053
0.0317835
0.0325826
0.0333736
0.0342072
0.0350224
0.0357849
0.0365987
0.00627823
0.00462447
0.000299686
-0.00405397
-0.0059184
-0.00539816
-0.00401969
-0.0027614
-0.00185606
-0.00121863
-0.000758496
-0.000433286
-0.000189164
7.80638e-05
0.000398509
0.000666694
0.000869157
0.0010928
0.00130779
0.00147278
0.00165819
0.00190482
0.00215925
0.00237074
0.00256642
0.00280067
0.00305287
0.00328072
0.00350343
0.0037426
0.00398757
0.00423757
0.00449421
0.00474052
0.00498146
0.00523674
0.00549779
0.00575686
0.0060283
0.00631473
0.00660383
0.00688928
0.00718345
0.00747683
0.00775819
0.00804719
0.00834689
0.00864883
0.00895184
0.00925608
0.0095677
0.00988418
0.0101978
0.0105189
0.0108456
0.011172
0.0115014
0.0118393
0.0121886
0.012539
0.0128981
0.0132811
0.0136926
0.0141176
0.01454
0.0149508
0.0153804
0.0158314
0.016275
0.0167306
0.0172305
0.0177494
0.0182563
0.0187709
0.0192983
0.019832
0.0203718
0.0209301
0.0215032
0.0220917
0.0226945
0.0233128
0.0239458
0.0245901
0.0252508
0.0259231
0.0266104
0.0273086
0.0280187
0.0287485
0.0294843
0.0302428
0.0310053
0.0317835
0.0325826
0.0333736
0.0342072
0.0350225
0.0357851
0.0365991
0.00578854
0.00436302
0.000499336
-0.00363032
-0.00560758
-0.00526905
-0.00396549
-0.00271948
-0.00181723
-0.00118762
-0.000736839
-0.000417294
-0.000174358
9.20689e-05
0.000410193
0.000676824
0.000878658
0.00110102
0.00131551
0.00148191
0.00166818
0.00191344
0.00216617
0.00237758
0.00257374
0.00280739
0.0030584
0.00328556
0.00350796
0.00374679
0.00399132
0.00424087
0.00449725
0.00474359
0.00498451
0.0052395
0.00550017
0.00575887
0.00602992
0.00631604
0.00660504
0.00689045
0.00718449
0.00747773
0.00775902
0.00804794
0.00834753
0.00864943
0.00895251
0.00925683
0.00956844
0.00988487
0.0101985
0.0105196
0.0108464
0.0111729
0.0115022
0.0118399
0.0121891
0.0125396
0.0128988
0.0132817
0.0136932
0.0141181
0.0145405
0.0149514
0.0153809
0.0158318
0.0162754
0.016731
0.0172309
0.0177498
0.0182567
0.0187712
0.0192985
0.0198322
0.020372
0.0209303
0.0215034
0.0220919
0.0226947
0.0233129
0.0239459
0.0245902
0.0252509
0.0259232
0.0266104
0.0273087
0.0280188
0.0287485
0.0294844
0.0302429
0.0310053
0.0317835
0.0325826
0.0333736
0.0342073
0.0350226
0.0357854
0.0365996
0.00533182
0.00409139
0.000679121
-0.0032073
-0.00528249
-0.0051314
-0.00391146
-0.00267886
-0.00177752
-0.0011545
-0.000713342
-0.000400155
-0.000158801
0.000106761
0.000422519
0.000687482
0.000888614
0.00110963
0.00132355
0.00149141
0.00167863
0.00192252
0.00217355
0.00238503
0.0025819
0.00281502
0.00306477
0.0032912
0.00351328
0.00375168
0.00399566
0.00424462
0.00450066
0.00474706
0.00498808
0.00524284
0.00550313
0.00576145
0.006032
0.00631766
0.00660649
0.00689185
0.00718573
0.0074788
0.00776003
0.00804886
0.00834827
0.00865009
0.00895325
0.00925767
0.00956927
0.00988562
0.0101992
0.0105204
0.0108473
0.0111739
0.0115032
0.0118408
0.0121899
0.0125404
0.0128996
0.0132826
0.0136939
0.0141188
0.0145413
0.0149523
0.0153817
0.0158324
0.0162759
0.0167316
0.0172315
0.0177503
0.0182571
0.0187717
0.019299
0.0198326
0.0203723
0.0209306
0.0215036
0.0220921
0.0226949
0.0233131
0.0239461
0.0245903
0.025251
0.0259233
0.0266105
0.0273088
0.0280188
0.0287486
0.0294844
0.0302429
0.0310054
0.0317835
0.0325827
0.0333737
0.0342073
0.0350227
0.0357857
0.0366003
0.00491706
0.00381823
0.000833304
-0.00279242
-0.00494537
-0.00498404
-0.00385703
-0.00263998
-0.00173729
-0.00111923
-0.000687833
-0.000381773
-0.000142464
0.000122125
0.000435453
0.000698651
0.000899056
0.00111871
0.00133201
0.0015013
0.00168951
0.001932
0.00218126
0.00239284
0.00259054
0.00282322
0.00307171
0.00329741
0.00351919
0.00375714
0.00400047
0.00424874
0.00450433
0.00475079
0.00499196
0.00524657
0.00550657
0.00576455
0.00603455
0.00631963
0.0066082
0.00689348
0.00718715
0.00748003
0.00776124
0.00804998
0.00834915
0.00865083
0.00895407
0.00925862
0.00957019
0.00988644
0.0101999
0.0105212
0.0108483
0.0111751
0.0115045
0.0118419
0.0121908
0.0125413
0.0129008
0.0132837
0.0136948
0.0141196
0.0145422
0.0149534
0.0153826
0.0158332
0.0162766
0.0167323
0.0172321
0.0177509
0.0182577
0.0187723
0.0192995
0.0198331
0.0203728
0.020931
0.021504
0.0220924
0.0226952
0.0233134
0.0239463
0.0245905
0.0252512
0.0259234
0.0266107
0.0273089
0.0280189
0.0287487
0.0294845
0.030243
0.0310054
0.0317836
0.0325827
0.0333737
0.0342073
0.0350229
0.0357861
0.036601
0.00454727
0.0035488
0.000956996
-0.00239113
-0.00459693
-0.00482456
-0.00380079
-0.00260288
-0.00169694
-0.00108182
-0.000660088
-0.000361954
-0.000125262
0.000138185
0.000449014
0.000710374
0.000910041
0.00112834
0.00134098
0.0015117
0.00170092
0.00194199
0.00218935
0.00240093
0.00259949
0.00283177
0.00307902
0.00330402
0.0035255
0.00376299
0.00400566
0.00425315
0.00450821
0.0047547
0.00499606
0.00525055
0.00551033
0.00576805
0.00603751
0.00632193
0.00661015
0.0068953
0.00718872
0.0074814
0.00776262
0.00805128
0.0083502
0.00865169
0.008955
0.00925967
0.00957122
0.00988732
0.0102008
0.010522
0.0108493
0.0111764
0.0115059
0.0118432
0.012192
0.0125426
0.0129022
0.013285
0.0136958
0.0141204
0.0145433
0.0149547
0.0153838
0.0158341
0.0162775
0.0167333
0.017233
0.0177516
0.0182585
0.0187731
0.0193003
0.0198337
0.0203734
0.0209316
0.0215045