/*--------------------------------*- C++ -*----------------------------------*\
| =========                 |                                                 |
| \\      /  F ield         | OpenFOAM: The Open Source CFD Toolbox           |
|  \\    /   O peration     | Version:  2106                                  |
|   \\  /    A nd           | Website:  www.openfoam.com                      |
|    \\/     M anipulation  |                                                 |
\*---------------------------------------------------------------------------*/
FoamFile
{
    version     2.0;
    format      ascii;
    arch        "LSB;label=32;scalar=64";
    class       volVectorField;
    location    "0.035";
    object      U;
}
// * * * * * * * * * * * * * * * * * * * * * * * * * * * * * * * * * * * * * //

dimensions      [0 1 -1 0 0 0 0];

internalField   nonuniform List<vector> 
9600
(
(1 -1.72199e-07 0)
(1 1.11408e-06 0)
(0.99994 -1.5184e-06 0)
(1.00004 2.12459e-05 0)
(0.999461 -8.59417e-05 0)
(1.00134 0.000369929 0)
(0.995137 -0.00124378 0)
(1.01282 0.00343192 0)
(0.969062 -0.00751809 0)
(1.06059 0.0114411 0)
(0.905381 -0.0122848 0)
(1.12223 0.00201841 0)
(0.884941 0.0078938 0)
(1.09799 -0.008696 0)
(0.898836 -0.0062416 0)
(1.11408 0.00579253 0)
(0.883069 0.00684218 0)
(1.09602 -0.00922606 0)
(0.859711 -0.00604779 0)
(1.13157 0.00125195 0)
(1 -1.7014e-07 0)
(1 1.49471e-06 0)
(0.999941 -1.50138e-06 0)
(1.00004 2.44519e-05 0)
(0.999489 -9.52511e-05 0)
(1.0012 0.000407118 0)
(0.995714 -0.0013554 0)
(1.01088 0.00370812 0)
(0.975022 -0.00810949 0)
(1.04916 0.0121696 0)
(0.934145 -0.0132386 0)
(1.09433 0.0021899 0)
(0.928791 0.00823521 0)
(1.05965 -0.00870353 0)
(0.94219 -0.00697776 0)
(1.06038 0.00610933 0)
(0.957031 0.00752554 0)
(1.02055 -0.00918787 0)
(0.957111 -0.00654324 0)
(1.01612 0.00109993 0)
(1 -1.75701e-07 0)
(1 1.86103e-06 0)
(0.999942 -1.46098e-06 0)
(1.00003 2.71558e-05 0)
(0.999533 -0.000101985 0)
(1.00099 0.000433836 0)
(0.996584 -0.00143113 0)
(1.00796 0.00388944 0)
(0.983317 -0.00847388 0)
(1.03162 0.0126285 0)
(0.96672 -0.0136638 0)
(1.0525 0.00232352 0)
(0.974737 0.00875684 0)
(1.02619 -0.00877254 0)
(0.977277 -0.00696506 0)
(1.01914 0.00593795 0)
(0.996184 0.00827644 0)
(0.998726 -0.0089869 0)
(0.983412 -0.00633471 0)
(0.997675 0.00146378 0)
(1 -1.75462e-07 0)
(1 2.2033e-06 0)
(0.999943 -1.3314e-06 0)
(1.00002 2.93448e-05 0)
(0.999574 -0.000106318 0)
(1.00079 0.000449726 0)
(0.997363 -0.00146811 0)
(1.00537 0.00395336 0)
(0.990203 -0.00858299 0)
(1.01614 0.0126036 0)
(0.988957 -0.013604 0)
(1.01845 0.00208312 0)
(0.997772 0.00905496 0)
(1.01158 -0.00858098 0)
(0.98882 -0.00680772 0)
(1.0024 0.0054482 0)
(1.00608 0.00869401 0)
(0.99975 -0.00858429 0)
(0.984938 -0.00612616 0)
(0.994602 0.00185045 0)
(1 -1.74364e-07 0)
(1 2.54765e-06 0)
(0.999944 -1.14065e-06 0)
(1.00002 3.13021e-05 0)
(0.999602 -0.000109274 0)
(1.00066 0.000459685 0)
(0.997865 -0.00148369 0)
(1.00372 0.00395516 0)
(0.994284 -0.00855405 0)
(1.00654 0.0123576 0)
(0.999706 -0.013323 0)
(0.999851 0.0017388 0)
(1.00302 0.00906218 0)
(1.00821 -0.00826589 0)
(0.990129 -0.00666738 0)
(0.995164 0.00497778 0)
(1.00687 0.00872578 0)
(1.00161 -0.00805547 0)
(0.985224 -0.00572813 0)
(0.989644 0.00194491 0)
(1 -1.73148e-07 0)
(1 2.90176e-06 0)
(0.999945 -8.93567e-07 0)
(1.00002 3.31277e-05 0)
(0.999618 -0.000111289 0)
(1.00059 0.000465909 0)
(0.998124 -0.00148602 0)
(1.0029 0.00392237 0)
(0.996167 -0.00844376 0)
(1.00202 0.0120395 0)
(1.00362 -0.0129388 0)
(0.9925 0.00148803 0)
(1.00202 0.00889184 0)
(1.00783 -0.00796282 0)
(0.990127 -0.00639905 0)
(0.991025 0.00454906 0)
(1.00527 0.00852143 0)
(1.00223 -0.00746243 0)
(0.986122 -0.00524264 0)
(0.98616 0.00216691 0)
(1 -1.71194e-07 0)
(1 3.26705e-06 0)
(0.999945 -6.03331e-07 0)
(1.00001 3.48972e-05 0)
(0.999627 -0.000112781 0)
(1.00055 0.000470177 0)
(0.998248 -0.00148131 0)
(1.00254 0.00387194 0)
(0.996914 -0.00828745 0)
(1.00029 0.0116894 0)
(1.00468 -0.0124905 0)
(0.990427 0.00129996 0)
(1.00057 0.00865305 0)
(1.00763 -0.00769635 0)
(0.99045 -0.00603061 0)
(0.989132 0.00416864 0)
(1.00349 0.00820755 0)
(1.00222 -0.00688436 0)
(0.987036 -0.0047261 0)
(0.984823 0.00257283 0)
(1 -1.68595e-07 0)
(1 3.64383e-06 0)
(0.999946 -2.7616e-07 0)
(1.00001 3.66475e-05 0)
(0.999634 -0.000113951 0)
(1.00053 0.000473379 0)
(0.998319 -0.00147281 0)
(1.00236 0.00381249 0)
(0.997226 -0.00810689 0)
(0.999693 0.0113209 0)
(1.00482 -0.0120044 0)
(0.990181 0.001122 0)
(0.999802 0.00840196 0)
(1.00731 -0.00745425 0)
(0.990854 -0.00562455 0)
(0.988701 0.00383947 0)
(1.00232 0.00783608 0)
(1.0019 -0.00630383 0)
(0.987792 -0.00422908 0)
(0.984783 0.00307023 0)
(1 -1.65471e-07 0)
(1 4.03255e-06 0)
(0.999946 8.78675e-08 0)
(1.00001 3.83897e-05 0)
(0.99964 -0.00011485 0)
(1.00051 0.000475758 0)
(0.998374 -0.00146147 0)
(1.00223 0.00374638 0)
(0.997409 -0.00791035 0)
(0.99946 0.0109362 0)
(1.00473 -0.0114933 0)
(0.990438 0.000934778 0)
(0.999435 0.00815759 0)
(1.00696 -0.00722228 0)
(0.991216 -0.00521803 0)
(0.988877 0.00355344 0)
(1.00168 0.00743215 0)
(1.00148 -0.0057015 0)
(0.988378 -0.0037747 0)
(0.985305 0.00359567 0)
(1 -1.61839e-07 0)
(1 4.43364e-06 0)
(0.999946 4.90643e-07 0)
(1.00001 4.01247e-05 0)
(0.999645 -0.000115477 0)
(1.00049 0.000477343 0)
(0.998427 -0.00144746 0)
(1.00211 0.00367399 0)
(0.997562 -0.00770034 0)
(0.999322 0.010535 0)
(1.00458 -0.0109615 0)
(0.990813 0.000732888 0)
(0.999204 0.00792627 0)
(1.00661 -0.00699619 0)
(0.991549 -0.00482221 0)
(0.989218 0.00330503 0)
(1.00128 0.00700466 0)
(1.00107 -0.00506787 0)
(0.988852 -0.0033684 0)
(0.985999 0.00410713 0)
(1 -1.5768e-07 0)
(1 4.84742e-06 0)
(0.999947 9.34597e-07 0)
(1.00001 4.18499e-05 0)
(0.999651 -0.000115815 0)
(1.00047 0.000478105 0)
(0.99848 -0.00143075 0)
(1.002 0.00359534 0)
(0.997707 -0.00747771 0)
(0.999208 0.0101175 0)
(1.00441 -0.0104116 0)
(0.991215 0.000517062 0)
(0.999003 0.00770774 0)
(1.00627 -0.00677273 0)
(0.991872 -0.00444221 0)
(0.989586 0.00309634 0)
(1.00096 0.00655202 0)
(1.00069 -0.00440092 0)
(0.989279 -0.0030007 0)
(0.986718 0.00456457 0)
(1 -1.52989e-07 0)
(1 5.27417e-06 0)
(0.999947 1.42235e-06 0)
(1.00001 4.3562e-05 0)
(0.999658 -0.000115844 0)
(1.00045 0.000477997 0)
(0.998534 -0.00141126 0)
(1.00188 0.00351035 0)
(0.997851 -0.00724272 0)
(0.999102 0.0096844 0)
(1.00423 -0.00984534 0)
(0.991628 0.000289033 0)
(0.998806 0.00750046 0)
(1.00594 -0.00654819 0)
(0.99219 -0.00408471 0)
(0.989951 0.00293249 0)
(1.00067 0.00606979 0)
(1.00033 -0.00370704 0)
(0.989694 -0.00264432 0)
(0.987425 0.00494394 0)
(1 -1.4775e-07 0)
(1 5.71418e-06 0)
(0.999947 1.95667e-06 0)
(1 4.52575e-05 0)
(0.999664 -0.000115544 0)
(1.00043 0.000476975 0)
(0.998589 -0.0013889 0)
(1.00176 0.00341902 0)
(0.997993 -0.00699567 0)
(0.999002 0.00923679 0)
(1.00405 -0.00926448 0)
(0.992048 5.07904e-05 0)
(0.998609 0.00730261 0)
(1.00561 -0.00631994 0)
(0.992505 -0.00375144 0)
(0.990307 0.00280825 0)
(1.00041 0.00557632 0)
(0.999996 -0.00301189 0)
(0.990105 -0.00228882 0)
(0.988117 0.00523358 0)
(1 -1.41935e-07 0)
(1 6.16774e-06 0)
(0.999948 2.54051e-06 0)
(1 4.69327e-05 0)
(0.999671 -0.000114893 0)
(1.00041 0.000474998 0)
(0.998645 -0.00136359 0)
(1.00164 0.00332139 0)
(0.998133 -0.00673693 0)
(0.998908 0.00877596 0)
(1.00386 -0.00867151 0)
(0.992471 -0.000194703 0)
(0.998414 0.00711118 0)
(1.00529 -0.00608321 0)
(0.99282 -0.00344961 0)
(0.990651 0.00272968 0)
(1.00017 0.0050783 0)
(0.999683 -0.00233415 0)
(0.990512 -0.00193437 0)
(0.988796 0.00541435 0)
(1 -1.35514e-07 0)
(1 6.63516e-06 0)
(0.999948 3.17694e-06 0)
(1 4.85842e-05 0)
(0.999678 -0.00011387 0)
(1.00038 0.000472029 0)
(0.998701 -0.00133528 0)
(1.00152 0.00321755 0)
(0.998271 -0.00646705 0)
(0.998822 0.00830351 0)
(1.00366 -0.00806921 0)
(0.992897 -0.000444284 0)
(0.998222 0.00692321 0)
(1.00497 -0.00583402 0)
(0.993136 -0.0031835 0)
(0.990981 0.0026971 0)
(0.999946 0.00458257 0)
(0.999393 -0.00169217 0)
(0.990909 -0.00153596 0)
(0.989464 0.00548415 0)
(1 -1.28454e-07 0)
(1 7.11678e-06 0)
(0.999949 3.86915e-06 0)
(0.999999 5.02082e-05 0)
(0.999685 -0.000112454 0)
(1.00036 0.000468036 0)
(0.998758 -0.00130393 0)
(1.00141 0.00310767 0)
(0.998405 -0.00618668 0)
(0.998743 0.00782119 0)
(1.00345 -0.00746059 0)
(0.993324 -0.00069404 0)
(0.998035 0.00673474 0)
(1.00465 -0.00556779 0)
(0.993455 -0.00295565 0)
(0.991295 0.00270463 0)
(0.999746 0.00410316 0)
(0.999131 -0.00110179 0)
(0.991293 -0.00109117 0)
(0.990118 0.00545412 0)
(1 -1.20713e-07 0)
(1 7.61295e-06 0)
(0.999949 4.62047e-06 0)
(0.999997 5.18015e-05 0)
(0.999693 -0.000110627 0)
(1.00034 0.000462992 0)
(0.998816 -0.00126952 0)
(1.00129 0.002992 0)
(0.998535 -0.00589669 0)
(0.998673 0.00733121 0)
(1.00324 -0.00684927 0)
(0.993751 -0.00094022 0)
(0.997856 0.00654268 0)
(1.00434 -0.00528358 0)
(0.993779 -0.00276255 0)
(0.991592 0.002743 0)
(0.999567 0.00365524 0)
(0.998901 -0.000575759 0)
(0.991658 -0.00061822 0)
(0.990755 0.00534476 0)
(1 -1.1223e-07 0)
(1 8.12403e-06 0)
(0.99995 5.43435e-06 0)
(0.999995 5.33608e-05 0)
(0.999701 -0.000108368 0)
(1.00031 0.00045688 0)
(0.998873 -0.00123208 0)
(1.00117 0.00287084 0)
(0.998661 -0.00559807 0)
(0.998612 0.0068359 0)
(1.00303 -0.00623902 0)
(0.994174 -0.00117888 0)
(0.997687 0.0063423 0)
(1.00402 -0.0049747 0)
(0.994109 -0.00260916 0)
(0.991874 0.00280993 0)
(0.999405 0.00325033 0)
(0.998706 -0.00013681 0)
(0.992003 -0.000101636 0)
(0.991371 0.00518998 0)
(1 -1.02935e-07 0)
(1 8.65045e-06 0)
(0.99995 6.31435e-06 0)
(0.999993 5.48832e-05 0)
(0.999709 -0.000105662 0)
(1.00029 0.00044969 0)
(0.998931 -0.00119163 0)
(1.00105 0.0027446 0)
(0.998781 -0.00529202 0)
(0.99856 0.00633792 0)
(1.0028 -0.00563408 0)
(0.994592 -0.00140473 0)
(0.99753 0.00612965 0)
(1.00369 -0.00463898 0)
(0.994446 -0.00249468 0)
(0.992142 0.00289843 0)
(0.999255 0.00288853 0)
(0.998551 0.000215104 0)
(0.992329 0.000444946 0)
(0.991956 0.0050232 0)
(1 -9.27492e-08 0)
(1 9.19263e-06 0)
(0.999951 7.26409e-06 0)
(0.99999 5.63663e-05 0)
(0.999717 -0.000102492 0)
(1.00026 0.000441425 0)
(0.998988 -0.00114826 0)
(1.00094 0.00261379 0)
(0.998896 -0.00497993 0)
(0.998519 0.00584027 0)
(1.00258 -0.0050389 0)
(0.995003 -0.001613 0)
(0.997389 0.00590253 0)
(1.00336 -0.00428005 0)
(0.994789 -0.00240626 0)
(0.992397 0.00298702 0)
(0.999114 0.0025879 0)
(0.99844 0.000483771 0)
(0.992637 0.00099793 0)
(0.992503 0.00487977 0)
(1 -8.15459e-08 0)
(1 9.75104e-06 0)
(0.999951 8.28727e-06 0)
(0.999988 5.78082e-05 0)
(0.999725 -9.88454e-05 0)
(1.00024 0.000432096 0)
(0.999045 -0.00110206 0)
(1.00083 0.00247895 0)
(0.999004 -0.00466326 0)
(0.998487 0.00534586 0)
(1.00235 -0.00445767 0)
(0.995404 -0.00179903 0)
(0.997264 0.00565618 0)
(1.00303 -0.00389509 0)
(0.995137 -0.00233999 0)
(0.992645 0.00307412 0)
(0.998977 0.00236591 0)
(0.998372 0.000670349 0)
(0.992934 0.00152437 0)
(0.993003 0.00477683 0)
(1 -6.93077e-08 0)
(1 1.03262e-05 0)
(0.999952 9.38762e-06 0)
(0.999986 5.92077e-05 0)
(0.999734 -9.47124e-05 0)
(1.00021 0.000421731 0)
(0.9991 -0.0010532 0)
(1.00072 0.00234078 0)
(0.999105 -0.00434381 0)
(0.998467 0.00485832 0)
(1.00212 -0.0038961 0)
(0.995793 -0.00195565 0)
(0.997158 0.00538831 0)
(1.0027 -0.00348396 0)
(0.995488 -0.00229906 0)
(0.992888 0.00314581 0)
(0.998839 0.00222085 0)
(0.998345 0.000780964 0)
(0.993226 0.00199937 0)
(0.99345 0.00472973 0)
(1 -5.59201e-08 0)
(1 1.09187e-05 0)
(0.999953 1.05688e-05 0)
(0.999983 6.05644e-05 0)
(0.999742 -9.00861e-05 0)
(1.00019 0.00041037 0)
(0.999155 -0.00100184 0)
(1.00062 0.00220005 0)
(0.999198 -0.00402339 0)
(0.998457 0.00438092 0)
(1.00188 -0.00335772 0)
(0.996168 -0.00208381 0)
(0.997074 0.00509974 0)
(1.00235 -0.0030572 0)
(0.995838 -0.0022613 0)
(0.993133 0.00318602 0)
(0.998696 0.00214558 0)
(0.998354 0.000834522 0)
(0.993523 0.00240655 0)
(0.993842 0.00475246 0)
(1 -4.11741e-08 0)
(0.999999 1.15292e-05 0)
(0.999954 1.18346e-05 0)
(0.999981 6.18792e-05 0)
(0.999751 -8.49631e-05 0)
(1.00016 0.000398069 0)
(0.999209 -0.000948221 0)
(1.00052 0.00205756 0)
(0.999283 -0.0037039 0)
(0.998457 0.00391704 0)
(1.00165 -0.00284699 0)
(0.996525 -0.00217949 0)
(0.997013 0.0047886 0)
(1.00201 -0.00261533 0)
(0.996184 -0.00222571 0)
(0.993383 0.00319546 0)
(0.998547 0.00213906 0)
(0.998395 0.000859261 0)
(0.993833 0.00272672 0)
(0.994178 0.00483272 0)
(1 -2.49706e-08 0)
(0.999999 1.21583e-05 0)
(0.999954 1.31885e-05 0)
(0.999978 6.31539e-05 0)
(0.999759 -7.93452e-05 0)
(1.00014 0.000384904 0)
(0.99926 -0.000892607 0)
(1.00042 0.0019143 0)
(0.99936 -0.00338756 0)
(0.998468 0.00347061 0)
(1.00142 -0.00236922 0)
(0.996863 -0.00223524 0)
(0.996976 0.00445697 0)
(1.00167 -0.00216369 0)
(0.996521 -0.00218982 0)
(0.993644 0.00316785 0)
(0.998393 0.00219341 0)
(0.998457 0.000871857 0)
(0.994162 0.00294726 0)
(0.994464 0.00494802 0)
(1 -7.16251e-09 0)
(0.999999 1.28069e-05 0)
(0.999955 1.4634e-05 0)
(0.999975 6.4392e-05 0)
(0.999768 -7.3238e-05 0)
(1.00011 0.000370964 0)
(0.99931 -0.000835301 0)
(1.00033 0.00177124 0)
(0.999428 -0.00307638 0)
(0.998489 0.00304465 0)
(1.0012 -0.0019267 0)
(0.99718 -0.00225308 0)
(0.996965 0.00411097 0)
(1.00132 -0.00172026 0)
(0.996845 -0.00212154 0)
(0.993919 0.00309718 0)
(0.998233 0.00228812 0)
(0.99853 0.000891432 0)
(0.994515 0.00307219 0)
(0.994711 0.00507745 0)
(1 1.24098e-08 0)
(0.999999 1.34758e-05 0)
(0.999956 1.61743e-05 0)
(0.999973 6.55984e-05 0)
(0.999777 -6.66523e-05 0)
(1.00009 0.000356356 0)
(0.999358 -0.000776641 0)
(1.00025 0.0016294 0)
(0.999487 -0.00277249 0)
(0.998519 0.00264245 0)
(1.00097 -0.00152299 0)
(0.997473 -0.00223118 0)
(0.996979 0.00375145 0)
(1.00099 -0.00128487 0)
(0.99715 -0.00203359 0)
(0.99421 0.00298201 0)
(0.998074 0.00241125 0)
(0.998605 0.000933695 0)
(0.994894 0.00310622 0)
(0.994931 0.00519037 0)
(1 3.39161e-08 0)
(0.999999 1.4166e-05 0)
(0.999957 1.78124e-05 0)
(0.99997 6.67798e-05 0)
(0.999785 -5.96055e-05 0)
(1.00007 0.00034121 0)
(0.999404 -0.000717023 0)
(1.00017 0.00148995 0)
(0.999537 -0.00247816 0)
(0.998557 0.00226729 0)
(1.00076 -0.00116073 0)
(0.997741 -0.00217047 0)
(0.997018 0.00338564 0)
(1.00066 -0.000869408 0)
(0.997433 -0.00191855 0)
(0.994519 0.0028312 0)
(0.997921 0.00254385 0)
(0.998671 0.00100717 0)
(0.995294 0.00306569 0)
(0.995139 0.00526374 0)
(1 5.75365e-08 0)
(0.999998 1.48786e-05 0)
(0.999957 1.95511e-05 0)
(0.999967 6.79448e-05 0)
(0.999793 -5.21186e-05 0)
(1.00005 0.000325666 0)
(0.999447 -0.000656831 0)
(1.00009 0.0013539 0)
(0.999579 -0.00219517 0)
(0.998603 0.00192111 0)
(1.00056 -0.000840064 0)
(0.997983 -0.00207509 0)
(0.997081 0.00302149 0)
(1.00034 -0.000482928 0)
(0.997689 -0.00176586 0)
(0.994843 0.00265351 0)
(0.99778 0.00266934 0)
(0.998722 0.00111717 0)
(0.995709 0.00297479 0)
(0.995351 0.00527991 0)
(1 8.34602e-08 0)
(0.999998 1.56148e-05 0)
(0.999958 2.13927e-05 0)
(0.999965 6.9104e-05 0)
(0.999802 -4.42199e-05 0)
(1.00002 0.000309883 0)
(0.999487 -0.000596501 0)
(1.00003 0.00122239 0)
(0.999612 -0.00192547 0)
(0.998654 0.00160622 0)
(1.00036 -0.000562039 0)
(0.998198 -0.00194697 0)
(0.997166 0.00266417 0)
(1.00005 -0.000131116 0)
(0.997915 -0.00157934 0)
(0.99518 0.00245739 0)
(0.997658 0.00277842 0)
(0.998753 0.00126456 0)
(0.996131 0.00285731 0)
(0.99558 0.00522592 0)
(1 1.11885e-07 0)
(0.999998 1.6376e-05 0)
(0.999959 2.33391e-05 0)
(0.999962 7.027e-05 0)
(0.999809 -3.59419e-05 0)
(1 0.000294035 0)
(0.999524 -0.000536485 0)
(0.999966 0.00109654 0)
(0.999638 -0.00167093 0)
(0.998711 0.00132457 0)
(1.00019 -0.000326583 0)
(0.998386 -0.00179032 0)
(0.99727 0.00232121 0)
(0.999774 0.00017774 0)
(0.99811 -0.00136091 0)
(0.995527 0.00225374 0)
(0.997561 0.00285861 0)
(0.998762 0.00144093 0)
(0.996546 0.00273616 0)
(0.995834 0.00510074 0)
(1 1.43019e-07 0)
(0.999998 1.71637e-05 0)
(0.99996 2.53919e-05 0)
(0.99996 7.14574e-05 0)
(0.999817 -2.73216e-05 0)
(0.999983 0.0002783 0)
(0.999558 -0.000477197 0)
(0.999912 0.000977208 0)
(0.999656 -0.00143251 0)
(0.998771 0.00107582 0)
(1.00002 -0.000129983 0)
(0.998547 -0.00161237 0)
(0.997391 0.00199919 0)
(0.999526 0.000442528 0)
(0.998273 -0.00111933 0)
(0.995879 0.00205448 0)
(0.997497 0.0029013 0)
(0.998751 0.00163225 0)
(0.996943 0.00262901 0)
(0.996117 0.00491193 0)
(1 1.77077e-07 0)
(0.999998 1.79795e-05 0)
(0.999961 2.75522e-05 0)
(0.999957 7.26831e-05 0)
(0.999824 -1.84024e-05 0)
(0.999965 0.000262873 0)
(0.99959 -0.000419098 0)
(0.999864 0.000865416 0)
(0.999667 -0.00121165 0)
(0.998833 0.000861082 0)
(0.999872 2.91176e-05 0)
(0.998682 -0.00141762 0)
(0.997524 0.00170511 0)
(0.999308 0.000660251 0)
(0.998406 -0.00085905 0)
(0.996228 0.00186933 0)
(0.997467 0.00290449 0)
(0.998725 0.00182515 0)
(0.997311 0.00254877 0)
(0.996427 0.00467582 0)
(1 2.14284e-07 0)
(0.999997 1.88253e-05 0)
(0.999961 2.98204e-05 0)
(0.999955 7.39655e-05 0)
(0.999831 -9.22946e-06 0)
(0.999948 0.000247942 0)
(0.999618 -0.000362582 0)
(0.999823 0.000761889 0)
(0.999673 -0.00100897 0)
(0.998896 0.0006796 0)
(0.999741 0.00015378 0)
(0.998795 -0.0012128 0)
(0.997667 0.0014439 0)
(0.999122 0.00083125 0)
(0.99851 -0.000588445 0)
(0.996569 0.00170631 0)
(0.997473 0.00287087 0)
(0.998689 0.00200678 0)
(0.997643 0.0025004 0)
(0.99676 0.00441231 0)
(1 2.54877e-07 0)
(0.999997 1.97031e-05 0)
(0.999962 3.21966e-05 0)
(0.999953 7.53251e-05 0)
(0.999838 1.4937e-07 0)
(0.999932 0.000233705 0)
(0.999643 -0.000308049 0)
(0.999788 0.000667303 0)
(0.999674 -0.000824864 0)
(0.998959 0.000529848 0)
(0.999626 0.000248414 0)
(0.998885 -0.00100495 0)
(0.997814 0.00121887 0)
(0.998969 0.000959114 0)
(0.99859 -0.000317432 0)
(0.996896 0.00157183 0)
(0.997515 0.00280618 0)
(0.998652 0.00216661 0)
(0.997932 0.00248241 0)
(0.997103 0.00414207 0)
(1 2.99103e-07 0)
(0.999997 2.0615e-05 0)
(0.999963 3.46804e-05 0)
(0.999951 7.67833e-05 0)
(0.999844 9.68547e-06 0)
(0.999917 0.00022034 0)
(0.999665 -0.000255818 0)
(0.999758 0.000582089 0)
(0.999671 -0.000659241 0)
(0.99902 0.000409997 0)
(0.99953 0.000317337 0)
(0.998957 -0.000799501 0)
(0.997962 0.00103254 0)
(0.99885 0.00104814 0)
(0.998649 -5.51053e-05 0)
(0.997204 0.00146812 0)
(0.99759 0.00271681 0)
(0.998621 0.00229655 0)
(0.998178 0.00248827 0)
(0.997446 0.00388293 0)
(1 3.47225e-07 0)
(0.999997 2.15632e-05 0)
(0.999964 3.72708e-05 0)
(0.999949 7.83629e-05 0)
(0.99985 1.93274e-05 0)
(0.999904 0.00020803 0)
(0.999684 -0.000206194 0)
(0.999734 0.000506586 0)
(0.999665 -0.000511754 0)
(0.999078 0.000318008 0)
(0.999451 0.000363919 0)
(0.999013 -0.000600853 0)
(0.998109 0.00088436 0)
(0.998765 0.00110349 0)
(0.998694 0.000191445 0)
(0.997489 0.00139589 0)
(0.997694 0.0026114 0)
(0.998601 0.00239257 0)
(0.998383 0.0025092 0)
(0.997777 0.00364782 0)
(1 3.99528e-07 0)
(0.999997 2.25502e-05 0)
(0.999964 3.99665e-05 0)
(0.999947 8.00869e-05 0)
(0.999856 2.90282e-05 0)
(0.999893 0.00019693 0)
(0.999701 -0.00015938 0)
(0.999715 0.000440864 0)
(0.999657 -0.000381802 0)
(0.999134 0.000251756 0)
(0.999389 0.000393091 0)
(0.999056 -0.000413648 0)
(0.99825 0.000772501 0)
(0.998711 0.0011321 0)
(0.998728 0.000415233 0)
(0.997748 0.00135285 0)
(0.997821 0.00249802 0)
(0.998598 0.00245354 0)
(0.998553 0.00253545 0)
(0.998085 0.00344349 0)
(1 4.56316e-07 0)
(0.999996 2.35785e-05 0)
(0.999965 4.27657e-05 0)
(0.999945 8.19785e-05 0)
(0.999861 3.87434e-05 0)
(0.999882 0.00018717 0)
(0.999715 -0.000115479 0)
(0.9997 0.000384868 0)
(0.999648 -0.000268253 0)
(0.999185 0.000207072 0)
(0.999343 0.000411114 0)
(0.99909 -0.000241589 0)
(0.998385 0.000693892 0)
(0.998686 0.00114053 0)
(0.998756 0.000611826 0)
(0.997981 0.00133492 0)
(0.997964 0.00238382 0)
(0.998614 0.00248122 0)
(0.998694 0.00255833 0)
(0.998365 0.00327104 0)
(1 5.17928e-07 0)
(0.999996 2.46505e-05 0)
(0.999966 4.56662e-05 0)
(0.999944 8.40601e-05 0)
(0.999865 4.84305e-05 0)
(0.999874 0.000178881 0)
(0.999727 -7.4724e-05 0)
(0.999689 0.000338409 0)
(0.999639 -0.000170037 0)
(0.999233 0.000181152 0)
(0.999311 0.000421341 0)
(0.999117 -8.59704e-05 0)
(0.998511 0.000644891 0)
(0.998686 0.00113513 0)
(0.998783 0.00077914 0)
(0.998189 0.0013367 0)
(0.998118 0.00227449 0)
(0.99865 0.0024795 0)
(0.998812 0.00257111 0)
(0.998612 0.00312718 0)
(1 5.84735e-07 0)
(0.999996 2.57688e-05 0)
(0.999967 4.86657e-05 0)
(0.999942 8.6353e-05 0)
(0.99987 5.80552e-05 0)
(0.999866 0.00017214 0)
(0.999738 -3.70812e-05 0)
(0.999682 0.000300885 0)
(0.999631 -8.52691e-05 0)
(0.999276 0.000171178 0)
(0.999293 0.000426894 0)
(0.999141 5.18859e-05 0)
(0.998628 0.000620657 0)
(0.998708 0.00112141 0)
(0.998813 0.000916799 0)
(0.998372 0.00135224 0)
(0.998277 0.00217394 0)
(0.998704 0.00245352 0)
(0.998916 0.00256954 0)
(0.998826 0.003006 0)
(1 6.57156e-07 0)
(0.999996 2.69359e-05 0)
(0.999967 5.17614e-05 0)
(0.999941 8.88762e-05 0)
(0.999873 6.75883e-05 0)
(0.99986 0.000166993 0)
(0.999746 -2.43996e-06 0)
(0.999678 0.00027189 0)
(0.999624 -1.32063e-05 0)
(0.999316 0.000173789 0)
(0.999285 0.000430442 0)
(0.999162 0.00017165 0)
(0.998735 0.000616221 0)
(0.998748 0.00110397 0)
(0.998847 0.00102603 0)
(0.998533 0.00137564 0)
(0.998437 0.00208422 0)
(0.998775 0.00240884 0)
(0.99901 0.00255175 0)
(0.999009 0.00290072 0)
(1 7.35661e-07 0)
(0.999996 2.8154e-05 0)
(0.999968 5.49504e-05 0)
(0.999941 9.16465e-05 0)
(0.999877 7.70069e-05 0)
(0.999855 0.000163473 0)
(0.999754 2.92767e-05 0)
(0.999677 0.000250686 0)
(0.999619 4.779e-05 0)
(0.999352 0.000186154 0)
(0.999288 0.000434015 0)
(0.999184 0.000274365 0)
(0.998833 0.00062672 0)
(0.998801 0.00108623 0)
(0.998888 0.00110926 0)
(0.998676 0.00140162 0)
(0.998592 0.00200577 0)
(0.998859 0.00235085 0)
(0.999099 0.00251795 0)
(0.999166 0.00280499 0)
(1 8.20779e-07 0)
(0.999996 2.94253e-05 0)
(0.999969 5.82297e-05 0)
(0.99994 9.4677e-05 0)
(0.99988 8.6296e-05 0)
(0.999852 0.000161565 0)
(0.99976 5.82642e-05 0)
(0.999678 0.000236453 0)
(0.999616 0.000100064 0)
(0.999386 0.000205748 0)
(0.999299 0.00043905 0)
(0.999208 0.000361261 0)
(0.998923 0.000647516 0)
(0.998864 0.00107043 0)
(0.998937 0.00116972 0)
(0.998803 0.00142593 0)
(0.99874 0.0019378 0)
(0.998953 0.00228424 0)
(0.999185 0.00246975 0)
(0.9993 0.00271375 0)
(1 9.13108e-07 0)
(0.999995 3.07514e-05 0)
(0.999969 6.15957e-05 0)
(0.99994 9.7977e-05 0)
(0.999884 9.5447e-05 0)
(0.99985 0.000161231 0)
(0.999766 8.47129e-05 0)
(0.999681 0.000228424 0)
(0.999615 0.000144839 0)
(0.999417 0.000230249 0)
(0.999317 0.000446355 0)
(0.999234 0.000433941 0)
(0.999006 0.000674542 0)
(0.998935 0.00105773 0)
(0.998992 0.00121095 0)
(0.998918 0.00144543 0)
(0.99888 0.00187866 0)
(0.999053 0.00221279 0)
(0.999272 0.00240959 0)
(0.999417 0.00262352 0)
(1 1.01332e-06 0)
(0.999995 3.21338e-05 0)
(0.99997 6.50448e-05 0)
(0.99994 0.000101552 0)
(0.999886 0.000104457 0)
(0.999848 0.0001624 0)
(0.999771 0.000108857 0)
(0.999686 0.000225728 0)
(0.999617 0.000183406 0)
(0.999446 0.00025777 0)
(0.999341 0.000456234 0)
(0.999263 0.000494195 0)
(0.999083 0.000704405 0)
(0.99901 0.00104842 0)
(0.999054 0.00123651 0)
(0.999024 0.00145813 0)
(0.999011 0.00182628 0)
(0.999156 0.00213931 0)
(0.999359 0.00234022 0)
(0.999521 0.00253232 0)
(1 1.12216e-06 0)
(0.999995 3.3573e-05 0)
(0.99997 6.85728e-05 0)
(0.99994 0.0001054 0)
(0.999889 0.000113329 0)
(0.999848 0.000164976 0)
(0.999776 0.000130944 0)
(0.999693 0.00022751 0)
(0.999622 0.000216942 0)
(0.999474 0.000286754 0)
(0.999369 0.000468578 0)
(0.999296 0.000543825 0)
(0.999154 0.000734429 0)
(0.999087 0.00104213 0)
(0.999121 0.00124965 0)
(0.999122 0.00146305 0)
(0.999133 0.0017785 0)
(0.999259 0.00206566 0)
(0.999445 0.0022643 0)
(0.999614 0.00243942 0)
(1 1.24045e-06 0)
(0.999995 3.50693e-05 0)
(0.999971 7.21746e-05 0)
(0.99994 0.000109518 0)
(0.999892 0.000122067 0)
(0.999849 0.000168841 0)
(0.999782 0.000151222 0)
(0.999701 0.000232943 0)
(0.999629 0.000246454 0)
(0.999501 0.00031597 0)
(0.9994 0.00048298 0)
(0.999333 0.000584521 0)
(0.999222 0.00076264 0)
(0.999164 0.00103803 0)
(0.999193 0.00125318 0)
(0.999215 0.00146001 0)
(0.999246 0.00173332 0)
(0.999361 0.0019929 0)
(0.999531 0.00218417 0)
(0.9997 0.00234494 0)
(1 1.36909e-06 0)
(0.999995 3.66218e-05 0)
(0.999972 7.58445e-05 0)
(0.999941 0.000113893 0)
(0.999895 0.000130677 0)
(0.999851 0.000173856 0)
(0.999788 0.000169927 0)
(0.99971 0.000241248 0)
(0.99964 0.000272756 0)
(0.999528 0.000344487 0)
(0.999434 0.000498843 0)
(0.999372 0.000617768 0)
(0.999288 0.000787692 0)
(0.999241 0.00103512 0)
(0.999267 0.00124934 0)
(0.999303 0.00144941 0)
(0.99935 0.00168909 0)
(0.999459 0.00192151 0)
(0.999615 0.00210174 0)
(0.999779 0.00224944 0)
(1 1.50903e-06 0)
(0.999995 3.82286e-05 0)
(0.999972 7.9575e-05 0)
(0.999942 0.000118507 0)
(0.999898 0.000139165 0)
(0.999854 0.00017987 0)
(0.999794 0.00018727 0)
(0.999721 0.000251702 0)
(0.999652 0.000296474 0)
(0.999556 0.000371629 0)
(0.99947 0.000515472 0)
(0.999414 0.000644804 0)
(0.999351 0.000808762 0)
(0.999317 0.00103236 0)
(0.999342 0.00123984 0)
(0.999388 0.00143205 0)
(0.999448 0.0016446 0)
(0.999552 0.00185156 0)
(0.999697 0.00201844 0)
(0.999853 0.0021537 0)
(1 1.66124e-06 0)
(0.999995 3.98868e-05 0)
(0.999973 8.33571e-05 0)
(0.999943 0.000123337 0)
(0.999902 0.000147532 0)
(0.999857 0.000186719 0)
(0.999801 0.000203433 0)
(0.999733 0.000263656 0)
(0.999667 0.000318062 0)
(0.999583 0.000396927 0)
(0.999508 0.000532156 0)
(0.999459 0.000666605 0)
(0.999412 0.000825436 0)
(0.999391 0.00102877 0)
(0.999418 0.00122591 0)
(0.99947 0.00140884 0)
(0.999538 0.00159906 0)
(0.99964 0.00178289 0)
(0.999775 0.00193532 0)
(0.999923 0.00205848 0)
(1 1.82673e-06 0)
(0.999995 4.15918e-05 0)
(0.999974 8.71796e-05 0)
(0.999945 0.000128353 0)
(0.999905 0.000155775 0)
(0.999862 0.000194233 0)
(0.999809 0.000218559 0)
(0.999746 0.000276533 0)
(0.999684 0.000337819 0)
(0.999612 0.000420071 0)
(0.999547 0.000548222 0)
(0.999505 0.000683903 0)
(0.999473 0.000837597 0)
(0.999463 0.00102358 0)
(0.999493 0.00120839 0)
(0.99955 0.00138077 0)
(0.999623 0.00155206 0)
(0.999723 0.00171527 0)
(0.999849 0.00185304 0)
(0.999989 0.00196446 0)
(1 2.00643e-06 0)
(0.999995 4.33377e-05 0)
(0.999975 9.10284e-05 0)
(0.999946 0.000133518 0)
(0.999909 0.000163881 0)
(0.999867 0.000202239 0)
(0.999818 0.000232749 0)
(0.99976 0.00028983 0)
(0.999703 0.000355914 0)
(0.999641 0.000440863 0)
(0.999586 0.000563077 0)
(0.999552 0.00069722 0)
(0.999532 0.000845319 0)
(0.999533 0.0010162 0)
(0.999567 0.00118782 0)
(0.999626 0.00134872 0)
(0.999703 0.00150349 0)
(0.999801 0.00164846 0)
(0.999919 0.00177203 0)
(1.00005 0.00187217 0)
(1 2.2012e-06 0)
(0.999995 4.51165e-05 0)
(0.999976 9.4886e-05 0)
(0.999948 0.000138786 0)
(0.999913 0.000171828 0)
(0.999873 0.000210559 0)
(0.999827 0.000246063 0)
(0.999775 0.000303113 0)
(0.999724 0.000372415 0)
(0.999671 0.000459184 0)
(0.999626 0.000576227 0)
(0.9996 0.000706913 0)
(0.99959 0.000848795 0)
(0.9996 0.00100626 0)
(0.999638 0.00116456 0)
(0.999699 0.00131345 0)
(0.999778 0.00145344 0)
(0.999873 0.0015823 0)
(0.999985 0.00169251 0)
(1.00011 0.00178199 0)
(1 2.4117e-06 0)
(0.999995 4.69183e-05 0)
(0.999977 9.87308e-05 0)
(0.999951 0.000144109 0)
(0.999918 0.000179584 0)
(0.99988 0.000219019 0)
(0.999838 0.000258521 0)
(0.999791 0.00031601 0)
(0.999746 0.000387316 0)
(0.999702 0.000474965 0)
(0.999667 0.000587279 0)
(0.999649 0.000713221 0)
(0.999648 0.000848271 0)
(0.999665 0.000993545 0)
(0.999707 0.00113885 0)
(0.999769 0.00127559 0)
(0.999848 0.0014021 0)
(0.999941 0.00151671 0)
(1.00005 0.0016146 0)
(1.00016 0.00169415 0)
(1 2.63836e-06 0)
(0.999995 4.87307e-05 0)
(0.999978 0.000102536 0)
(0.999953 0.000149427 0)
(0.999923 0.000187102 0)
(0.999888 0.000227445 0)
(0.99985 0.000270105 0)
(0.999809 0.000328205 0)
(0.99977 0.000400555 0)
(0.999734 0.000488166 0)
(0.999708 0.000595943 0)
(0.999697 0.0007163 0)
(0.999704 0.000844012 0)
(0.999728 0.000978003 0)
(0.999773 0.00111086 0)
(0.999836 0.00123566 0)
(0.999914 0.00134973 0)
(1 0.00145166 0)
(1.0001 0.00153836 0)
(1.00021 0.00160878 0)
(1 2.88122e-06 0)
(0.999995 5.0539e-05 0)
(0.999979 0.000106272 0)
(0.999956 0.000154675 0)
(0.999928 0.000194326 0)
(0.999897 0.000235665 0)
(0.999863 0.000280767 0)
(0.999827 0.000339427 0)
(0.999794 0.000412042 0)
(0.999767 0.000498765 0)
(0.999749 0.000602016 0)
(0.999746 0.000716263 0)
(0.999758 0.000836278 0)
(0.999788 0.000959678 0)
(0.999835 0.00108077 0)
(0.999899 0.00119405 0)
(0.999976 0.00129662 0)
(1.00006 0.0013872 0)
(1.00016 0.00146383 0)
(1.00026 0.00152593 0)
(1 3.1399e-06 0)
(0.999995 5.23252e-05 0)
(0.999981 0.000109899 0)
(0.99996 0.000159782 0)
(0.999934 0.000201184 0)
(0.999906 0.00024351 0)
(0.999876 0.000290432 0)
(0.999846 0.000349449 0)
(0.99982 0.000421668 0)
(0.9998 0.000506751 0)
(0.999789 0.000605374 0)
(0.999793 0.000713198 0)
(0.999812 0.000825316 0)
(0.999846 0.000938687 0)
(0.999895 0.00104872 0)
(0.999959 0.00115107 0)
(1.00003 0.00124301 0)
(1.00012 0.00132341 0)
(1.00021 0.001391 0)
(1.0003 0.00144562 0)
(1 3.41344e-06 0)
(0.999996 5.40685e-05 0)
(0.999982 0.000113376 0)
(0.999963 0.000164667 0)
(0.999941 0.000207592 0)
(0.999916 0.000250816 0)
(0.999891 0.000299005 0)
(0.999866 0.000358072 0)
(0.999846 0.000429324 0)
(0.999833 0.000512115 0)
(0.99983 0.000605956 0)
(0.99984 0.00070719 0)
(0.999863 0.000811354 0)
(0.999901 0.000915194 0)
(0.999952 0.00101489 0)
(1.00002 0.00110699 0)
(1.00009 0.00118914 0)
(1.00017 0.00126036 0)
(1.00025 0.00131988 0)
(1.00034 0.0013678 0)
(1 3.7002e-06 0)
(0.999996 5.57447e-05 0)
(0.999984 0.000116652 0)
(0.999967 0.000169244 0)
(0.999948 0.000213456 0)
(0.999927 0.000257421 0)
(0.999906 0.000306375 0)
(0.999887 0.000365129 0)
(0.999873 0.000434907 0)
(0.999867 0.000514858 0)
(0.99987 0.000603748 0)
(0.999885 0.000698328 0)
(0.999913 0.000794605 0)
(0.999954 0.000889389 0)
(1.00001 0.000979437 0)
(1.00007 0.00106202 0)
(1.00014 0.00113518 0)
(1.00021 0.00119814 0)
(1.00029 0.00125046 0)
(1.00037 0.00129242 0)
(1 3.99778e-06 0)
(0.999996 5.7326e-05 0)
(0.999986 0.00011967 0)
(0.999972 0.000173419 0)
(0.999955 0.000218672 0)
(0.999938 0.000263167 0)
(0.999922 0.000312425 0)
(0.999909 0.000370474 0)
(0.999901 0.000438328 0)
(0.9999 0.000514985 0)
(0.999909 0.000598772 0)
(0.999929 0.000686715 0)
(0.999961 0.000775268 0)
(1 0.000861466 0)
(1.00006 0.000942548 0)
(1.00012 0.00101634 0)
(1.00018 0.00108129 0)
(1.00026 0.00113683 0)
(1.00033 0.00118273 0)
(1.0004 0.0012194 0)