/*--------------------------------*- C++ -*----------------------------------*\
| =========                 |                                                 |
| \\      /  F ield         | OpenFOAM: The Open Source CFD Toolbox           |
|  \\    /   O peration     | Version:  2106                                  |
|   \\  /    A nd           | Website:  www.openfoam.com                      |
|    \\/     M anipulation  |                                                 |
\*---------------------------------------------------------------------------*/
FoamFile
{
    version     2.0;
    format      ascii;
    arch        "LSB;label=32;scalar=64";
    class       volScalarField;
    location    "0.705";
    object      p;
}
// * * * * * * * * * * * * * * * * * * * * * * * * * * * * * * * * * * * * * //

dimensions      [0 2 -2 0 0 0 0];

internalField   nonuniform List<scalar> 
9600
(
-1.85949e-11
0.00418014
0.00379571
0.00280987
0.0017795
0.00264757
0.00204261
0.00364543
0.00350175
0.00486295
0.00526288
0.00528628
0.00529725
0.00583236
0.00593078
0.00695505
0.00744034
0.00951699
0.011445
0.0171918
1.85258e-06
0.00417596
0.00379656
0.00280612
0.00178487
0.00266368
0.00204426
0.00364422
0.00350337
0.00486091
0.00526415
0.00528181
0.00530109
0.00582617
0.00593714
0.00694767
0.00745705
0.00949266
0.0114584
0.0165422
4.24954e-06
0.00416944
0.00379814
0.00280384
0.00179317
0.0026748
0.00204603
0.00364133
0.00350595
0.00486046
0.00526544
0.00527931
0.00530703
0.00581552
0.00594836
0.00693765
0.00747673
0.00945699
0.0114472
0.0159601
7.76944e-06
0.00416238
0.00379996
0.00280454
0.00180292
0.00268579
0.00204963
0.00363794
0.003509
0.00486423
0.00526361
0.00527811
0.00531267
0.00580201
0.00596276
0.00692359
0.00749717
0.00940949
0.011417
0.0153982
1.35397e-05
0.00415478
0.0038017
0.00280774
0.00181426
0.00269558
0.00205596
0.00363383
0.00351228
0.00486853
0.00525761
0.0052756
0.00531747
0.0057865
0.00597932
0.00690577
0.00751784
0.00935381
0.0113637
0.0148824
2.20741e-05
0.00414618
0.00380316
0.00281276
0.0018271
0.00270434
0.00206517
0.00362897
0.00351535
0.00487075
0.00524827
0.00527039
0.00532183
0.00576937
0.00599765
0.00688498
0.00753797
0.00929148
0.0112885
0.0143975
3.32325e-05
0.00413634
0.0038044
0.00281878
0.00184114
0.00271228
0.0020774
0.0036241
0.00351834
0.00487076
0.00523653
0.00526199
0.00532632
0.00575071
0.00601725
0.00686186
0.00755572
0.0092244
0.0111906
0.0139416
4.652e-05
0.00412527
0.00380561
0.00282515
0.00185621
0.00271976
0.00209302
0.00362009
0.00352173
0.00486903
0.00522272
0.00525035
0.00533134
0.00573041
0.00603755
0.00683699
0.00756886
0.00915426
0.01107
0.0135112
6.13904e-05
0.00411314
0.00380698
0.00283155
0.00187237
0.00272704
0.00211238
0.00361731
0.00352595
0.00486592
0.00520765
0.00523548
0.00533699
0.00570848
0.00605792
0.00681099
0.00757524
0.00908206
0.0109274
0.0131016
7.74214e-05
0.00410014
0.00380866
0.00283789
0.0018897
0.00273422
0.0021355
0.00361565
0.00353128
0.00486155
0.00519161
0.0052174
0.00534329
0.00568515
0.00607742
0.00678469
0.00757309
0.00900812
0.0107638
0.0127075
9.43614e-05
0.00408646
0.00381075
0.00284413
0.0019082
0.00274134
0.00216198
0.00361477
0.00353791
0.00485579
0.00517527
0.00519616
0.00535017
0.00566081
0.00609485
0.0067591
0.00756097
0.00893222
0.0105812
0.0123238
0.000112095
0.00407222
0.00381332
0.0028502
0.00192789
0.00274848
0.00219123
0.00361426
0.00354592
0.00484839
0.00515938
0.0051719
0.00535736
0.00563605
0.00610897
0.00673497
0.00753776
0.00885341
0.0103825
0.0119459
0.000130588
0.00405744
0.00381642
0.00285599
0.00194878
0.0027557
0.00222257
0.00361375
0.00355536
0.00483908
0.00514462
0.00514486
0.00536435
0.0056116
0.00611863
0.00671258
0.00750285
0.00877004
0.0101714
0.0115703
0.000149852
0.00404213
0.0038201
0.00286141
0.00197093
0.00276302
0.00225545
0.00361297
0.00356629
0.00482761
0.0051314
0.00511539
0.00537046
0.00558828
0.00612282
0.00669195
0.00745624
0.0086797
0.00995186
0.0111952
0.000169927
0.00402623
0.0038244
0.00286635
0.00199437
0.00277045
0.00228949
0.00361174
0.00357878
0.00481385
0.00511985
0.00508396
0.00537486
0.00556678
0.00612066
0.00667262
0.00739872
0.00857973
0.00972739
0.01082
0.000190875
0.00400965
0.00382939
0.00287075
0.00201915
0.00277798
0.00232453
0.00360989
0.00359288
0.00479775
0.00510984
0.00505113
0.00537674
0.0055476
0.00611156
0.00665344
0.00733173
0.0084679
0.00950031
0.0104457
0.000212777
0.00399229
0.00383515
0.00287452
0.00204533
0.00278559
0.00236046
0.00360733
0.00360857
0.0047794
0.00510096
0.00501756
0.00537528
0.00553097
0.00609542
0.00663269
0.00725674
0.00834262
0.00927478
0.0100742
0.000235731
0.00397403
0.00384175
0.00287762
0.00207294
0.00279324
0.00239723
0.00360403
0.00362581
0.00475904
0.00509261
0.00498389
0.00536982
0.00551677
0.00607268
0.00660835
0.00717463
0.00820318
0.00904581
0.00970737
0.000259852
0.00395472
0.00384928
0.00287999
0.00210201
0.00280093
0.00243475
0.00359997
0.00364443
0.00473702
0.00508424
0.00495055
0.00535987
0.00550453
0.00604408
0.0065784
0.00708595
0.00805053
0.00881549
0.00934746
0.000285269
0.0039342
0.00385783
0.00288158
0.00213254
0.00280871
0.00247295
0.00359521
0.00366408
0.00471382
0.00507537
0.00491791
0.00534524
0.00549328
0.00601016
0.00654166
0.0069911
0.00788593
0.0085839
0.00899652
0.000312127
0.00391227
0.00386746
0.00288234
0.0021645
0.00281663
0.00251167
0.00358992
0.00368439
0.00468996
0.0050655
0.00488617
0.00532608
0.00548188
0.00597089
0.00649759
0.00689047
0.00771009
0.00835085
0.00865701
0.000340586
0.00388874
0.00387826
0.00288224
0.00219783
0.00282482
0.00255067
0.0035844
0.00370494
0.00466589
0.00505425
0.00485528
0.0053026
0.00546948
0.00592597
0.00644568
0.00678433
0.00752343
0.00811569
0.00833148
0.000370815
0.00386341
0.00389028
0.00288125
0.00223243
0.0028335
0.00258965
0.00357899
0.00372515
0.00464197
0.00504164
0.00482484
0.00527501
0.00545556
0.00587513
0.0063853
0.006673
0.00732659
0.00787731
0.00802182
0.000403001
0.00383605
0.00390357
0.00287918
0.00226813
0.00284292
0.00262819
0.00357413
0.00374461
0.00461838
0.00502786
0.00479429
0.00524349
0.00543986
0.00581788
0.00631569
0.00655727
0.00712098
0.00763443
0.00772845
0.000437343
0.00380643
0.00391813
0.00287648
0.0023047
0.0028534
0.00266583
0.00357025
0.00376317
0.00459509
0.00501319
0.00476311
0.00520774
0.00542222
0.00575378
0.00623565
0.00643839
0.00690917
0.0073853
0.00744991
0.000474045
0.00377433
0.00393393
0.00287334
0.00234182
0.00286539
0.00270211
0.00356765
0.00378069
0.00457188
0.00499813
0.00473088
0.00516696
0.00540254
0.0056829
0.00614372
0.00631752
0.00668565
0.00712823
0.00718278
0.000513315
0.00373954
0.00395089
0.00286989
0.00237911
0.00287945
0.00273653
0.00356653
0.00379718
0.0045483
0.00498317
0.00469764
0.00511996
0.00538058
0.00560611
0.00603866
0.00619517
0.00647013
0.00686272
0.00692177
0.000555366
0.00370184
0.00396883
0.00286644
0.00241613
0.00289616
0.00276865
0.00356688
0.00381305
0.00452378
0.0049683
0.00466393
0.00506526
0.00535549
0.00552521
0.00591984
0.00607019
0.00626018
0.0065905
0.00666042
0.0006004
0.00366089
0.00398754
0.00286332
0.00245234
0.00291615
0.00279823
0.00356851
0.00382889
0.0044977
0.00495325
0.00463049
0.00500152
0.00532571
0.00544251
0.00578759
0.00594002
0.00605974
0.00631641
0.00639289
0.000648594
0.00361701
0.00400674
0.00286095
0.00248712
0.00293996
0.00282517
0.00357104
0.00384524
0.0044695
0.00493754
0.00459805
0.00492784
0.00528928
0.00536041
0.00564363
0.00580123
0.00587042
0.00604743
0.00611669
0.000700131
0.00357048
0.00402601
0.0028598
0.00251994
0.00296799
0.00284952
0.00357387
0.00386287
0.00443883
0.00492024
0.00456737
0.00484368
0.00524358
0.00528135
0.00549084
0.00565009
0.00568957
0.0057903
0.00583486
0.000755224
0.00352108
0.00404483
0.00286034
0.00255023
0.00300055
0.00287157
0.00357622
0.00388239
0.00440551
0.00490012
0.00453917
0.00474933
0.00518567
0.00520688
0.00533297
0.00548683
0.00551387
0.00554968
0.00555522
0.000814076
0.00346897
0.00406261
0.002863
0.00257746
0.00303781
0.00289196
0.00357713
0.00390448
0.00436947
0.00487515
0.00451446
0.00464619
0.00511241
0.00513684
0.0051751
0.00530738
0.00533745
0.00532521
0.00528659
0.000876798
0.00341438
0.00407876
0.00286829
0.00260112
0.00307964
0.00291153
0.00357549
0.00392985
0.00433125
0.00484233
0.00449407
0.00453723
0.00502097
0.0050695
0.00502323
0.00511539
0.00515351
0.0051136
0.00503452
0.000943458
0.00335768
0.00409267
0.00287674
0.00262077
0.00312572
0.00293135
0.00357002
0.00395862
0.00429188
0.00479854
0.00447742
0.00442756
0.00491029
0.00500083
0.0048822
0.00491551
0.00495813
0.00490973
0.00480029
0.00101413
0.00329922
0.00410371
0.00288881
0.00263594
0.00317558
0.00295271
0.00355918
0.00399059
0.00425302
0.00474076
0.00446337
0.00432329
0.00478099
0.00492511
0.00475414
0.00471285
0.00475044
0.00470794
0.00458252
0.00108885
0.00323947
0.00411129
0.00290491
0.00264619
0.00322841
0.00297726
0.00354133
0.00402507
0.00421768
0.00466695
0.00445017
0.00422963
0.00463582
0.00483639
0.0046382
0.00451437
0.0045322
0.0045034
0.00437797
0.00116765
0.00317881
0.00411491
0.00292555
0.00265104
0.00328304
0.00300693
0.00351505
0.00406005
0.00418984
0.00457749
0.00443217
0.00414982
0.00448107
0.00472924
0.00453108
0.0043272
0.00430781
0.00429275
0.00418174
0.00125054
0.00311767
0.00411399
0.00295126
0.00265013
0.00333796
0.00304395
0.00347964
0.00409184
0.0041736
0.00447481
0.00439791
0.00408404
0.00432476
0.00460042
0.00442732
0.00415688
0.00408416
0.00407474
0.00398763
0.00133745
0.00305654
0.0041078
0.00298276
0.00264356
0.00339096
0.00309046
0.00343525
0.00411533
0.00417242
0.0043636
0.00433786
0.0040307
0.0041755
0.0044504
0.00431683
0.00400315
0.00386892
0.00385149
0.00379049
0.00142826
0.00299608
0.00409556
0.00302086
0.00263176
0.00343895
0.0031483
0.00338288
0.00412432
0.00418753
0.00425186
0.00425334
0.00398328
0.00404038
0.00428615
0.00419156
0.00386145
0.0036682
0.00362874
0.00358871
0.00152266
0.00293715
0.00407636
0.00306635
0.00261571
0.00347797
0.00321836
0.00332546
0.00411296
0.0042172
0.00414982
0.00414464
0.00393125
0.00392127
0.00411667
0.00404956
0.0037235
0.0034832
0.00341369
0.00338546
0.00162021
0.00288078
0.0040492
0.00311956
0.00259727
0.00350386
0.00330028
0.00325352
0.00407764
0.00425581
0.00406623
0.004016
0.00386989
0.00381738
0.0039511
0.00389383
0.00358196
0.00331096
0.00321051
0.00318713
0.00172038
0.00282824
0.00401287
0.00318015
0.00257966
0.0035127
0.00339233
0.00320939
0.00401701
0.00429376
0.00400772
0.00387548
0.00377854
0.00372937
0.00379542
0.00372888
0.00343368
0.0031471
0.00301905
0.00299726
0.00182244
0.00278099
0.00396643
0.00324757
0.00256714
0.0035013
0.00348946
0.00318124
0.00393174
0.00431951
0.00397749
0.00373496
0.00366226
0.00363396
0.00365308
0.00356129
0.00327753
0.00298802
0.00283885
0.00281473
0.00192538
0.0027406
0.00390969
0.00332025
0.00256444
0.00346811
0.00358407
0.00317522
0.00382726
0.00432307
0.00397313
0.00360638
0.0035221
0.00352896
0.00352425
0.00339928
0.0031141
0.00282881
0.00267025
0.0026397
0.00202813
0.00270837
0.00384319
0.00339602
0.00257578
0.00341375
0.00366979
0.00319512
0.00371409
0.00429846
0.00398521
0.00349908
0.00336572
0.00340684
0.00340369
0.00324862
0.00294841
0.00266415
0.00251012
0.00247677
0.00212966
0.00268523
0.00376806
0.00346355
0.0026042
0.00334341
0.00373106
0.00323959
0.00360482
0.00424408
0.00400247
0.00341821
0.00320457
0.00326565
0.00328333
0.00311081
0.00278818
0.0024931
0.00234989
0.00232859
0.00222876
0.00267179
0.00368633
0.0035216
0.00265167
0.00326514
0.00376188
0.0032994
0.0035096
0.00416341
0.00401371
0.00336362
0.00304855
0.00310685
0.00315766
0.00298492
0.00263979
0.00232116
0.00218049
0.00218752
0.00232418
0.00266841
0.00358304
0.00356623
0.00271789
0.0031886
0.00375948
0.00336288
0.0034356
0.00406596
0.00401127
0.00333009
0.00290522
0.00293443
0.00302248
0.00286836
0.00250677
0.00215832
0.00200211
0.00203883
0.00241492
0.00267577
0.00349854
0.00359423
0.00279913
0.00312232
0.00372266
0.00341581
0.00338499
0.0039635
0.00399307
0.00331051
0.00277966
0.00275452
0.00287415
0.00275657
0.00238967
0.00201127
0.00182637
0.00187448
0.00250008
0.00269373
0.00341732
0.00360342
0.00288846
0.00307232
0.00365967
0.00344906
0.00335106
0.00386371
0.00396142
0.0032996
0.00267381
0.00257414
0.00271141
0.00264438
0.00228798
0.00188102
0.00166387
0.00170228
0.00257891
0.00272119
0.00334324
0.00359353
0.00297713
0.00304187
0.00358376
0.00345669
0.00332115
0.00376882
0.00392143
0.00329566
0.00258779
0.00239862
0.00253571
0.00252649
0.00220121
0.00176876
0.00151654
0.00153679
0.00265104
0.00275642
0.00327957
0.0035661
0.00305709
0.00303132
0.00350579
0.00343807
0.00328528
0.00367764
0.00387649
0.00329878
0.00252288
0.00223294
0.00234948
0.00239696
0.00212466
0.00168007
0.00138418
0.00138436
0.0027166
0.00279706
0.00322841
0.00352465
0.00312233
0.00303756
0.00342813
0.00340012
0.00323694
0.00358199
0.00382686
0.00330939
0.00248228
0.00208321
0.00215639
0.00225111
0.00204932
0.00161837
0.00127315
0.00124332
0.00277595
0.00284031
0.00319059
0.00347457
0.00316838
0.00305441
0.00336887
0.00335297
0.00317552
0.00347339
0.00376688
0.00332696
0.00246837
0.00195698
0.00196386
0.002088
0.00196395
0.00157649
0.00119429
0.00111504
0.00282992
0.00288343
0.00316601
0.00342141
0.00319346
0.00307366
0.00332154
0.00330431
0.00310522
0.00334847
0.00368677
0.00334781
0.00248309
0.00186158
0.00177999
0.00191144
0.00186068
0.00154154
0.0011509
0.0010101
0.0028792
0.00292467
0.00315277
0.00337122
0.00319783
0.00308796
0.00328392
0.00326048
0.00303542
0.00320809
0.00357685
0.00336053
0.00252588
0.00180405
0.00161342
0.00172843
0.00173895
0.00149867
0.00113529
0.000941646
0.00292424
0.00296294
0.00314752
0.00332676
0.00318714
0.00309136
0.00325194
0.00322413
0.0029746
0.00306022
0.00343358
0.00334906
0.00259121
0.00179183
0.00147481
0.00154503
0.00160161
0.00143972
0.00113191
0.000913757
0.00296564
0.00299746
0.00314676
0.00328943
0.00316727
0.0030813
0.00322075
0.00319482
0.00292713
0.0029204
0.00326186
0.0032981
0.00266174
0.00182517
0.00137868
0.00136972
0.00145172
0.0013631
0.00112437
0.000917865
0.00300377
0.00302807
0.00314731
0.00325904
0.00314333
0.00305834
0.00318224
0.00316724
0.00289369
0.00279972
0.00307348
0.00320183
0.00271389
0.00189547
0.00133688
0.00121947
0.00129528
0.00126977
0.00110287
0.000935943
0.00303852
0.00305481
0.00314716
0.00323395
0.0031189
0.00302583
0.00313405
0.00313588
0.0028721
0.00270422
0.0028881
0.00306606
0.00273044
0.00198187
0.00134669
0.00111277
0.00114387
0.00116389
0.00106591
0.000951892
0.00306955
0.00307782
0.00314525
0.00321127
0.00309618
0.00298857
0.00307646
0.00309607
0.00285501
0.00263349
0.00272152
0.00290159
0.00270229
0.002063
0.00139806
0.00105859
0.00101716
0.00105332
0.00101844
0.000959661
0.00309635
0.00309735
0.00314115
0.00318874
0.00307522
0.0029505
0.00301052
0.00304509
0.00283611
0.00258379
0.0025826
0.00272882
0.00263094
0.00212271
0.00147461
0.00105287
0.0009309
0.000951597
0.000965567
0.000962235
0.00311854
0.00311332
0.00313479
0.00316494
0.00305556
0.00291408
0.00294008
0.00298224
0.00281074
0.00254794
0.00247145
0.00256744
0.00252821
0.00214747
0.00156084
0.00108974
0.000891039
0.00087455
0.00091458
0.000963659
0.00313572
0.00312537
0.00312636
0.00313892
0.00303445
0.00288053
0.00286965
0.00290906
0.00277449
0.00251891
0.00238452
0.00242556
0.00241282
0.00213792
0.00163987
0.00115947
0.00089682
0.000834418
0.000877066
0.000968994
0.00314757
0.00313317
0.00311604
0.0031105
0.00301042
0.00284936
0.00280194
0.00282815
0.00272526
0.0024896
0.0023178
0.00230506
0.00229964
0.00210667
0.00170157
0.0012498
0.000947127
0.000839155
0.000867771
0.000986569
0.0031541
0.00313644
0.00310371
0.00307861
0.0029822
0.0028189
0.00273844
0.0027427
0.00266309
0.00245406
0.00226434
0.00220581
0.00219363
0.00206455
0.00174898
0.00134978
0.00103861
0.000895353
0.000902148
0.0010299
0.00315524
0.00313495
0.00308933
0.0030461
0.00294972
0.00278695
0.00267889
0.00265602
0.00258939
0.00240833
0.00221534
0.00212425
0.00209712
0.00201575
0.00178874
0.00145612
0.00116559
0.00100838
0.00099657
0.00112077
0.00315115
0.00312868
0.00307272
0.00301222
0.00291329
0.00275218
0.00262219
0.00257023
0.00250658
0.0023504
0.00216291
0.00205344
0.00201164
0.00196176
0.00182167
0.00157078
0.00132429
0.0011819
0.00116913
0.00128969
0.00314198
0.00311768
0.00305358
0.002977
0.00287342
0.00271403
0.00256736
0.00248657
0.00241685
0.00228096
0.00210295
0.00198415
0.00193482
0.00190457
0.00184279
0.00169251
0.0015164
0.00142067
0.00143545
0.00156706
0.0031282
0.00310237
0.00303207
0.00294051
0.00283071
0.00267255
0.00251326
0.00240593
0.0023232
0.0022013
0.00203539
0.00191013
0.00185968
0.00184613
0.00184969
0.00181432
0.00174155
0.00172878
0.00180982
0.00197705
0.00311101
0.00308304
0.00300839
0.00290319
0.00278558
0.00262821
0.00245925
0.00232831
0.00222892
0.00211393
0.00196258
0.00183402
0.00178394
0.00179146
0.00184885
0.00193218
0.00199888
0.00210773
0.00229978
0.00253312
0.00309066
0.00306023
0.00298268
0.00286605
0.00273881
0.00258125
0.00240593
0.00225405
0.00213584
0.00202304
0.0018897
0.00177132
0.00172699
0.00176413
0.0018797
0.00207884
0.00230523
0.00253394
0.00277553
0.00298298
0.0030681
0.00303494
0.00295509
0.00282961
0.00269204
0.00253257
0.00235408
0.0021859
0.00204716
0.00193187
0.00181924
0.00173155
0.0017156
0.00179634
0.001974
0.00225002
0.00256712
0.00286265
0.00311801
0.00329679
0.00304428
0.0030085
0.00292674
0.00279403
0.0026468
0.00248377
0.00230438
0.00212796
0.00197369
0.00184945
0.00174891
0.00169826
0.00174318
0.0018924
0.00213829
0.00245898
0.00279716
0.00308633
0.00330136
0.00342062
0.00302093
0.00298177
0.00289852
0.00276097
0.00260454
0.00243672
0.00225678
0.00208011
0.00192468
0.00180454
0.00170863
0.00165533
0.00170878
0.00189573
0.00220232
0.00260563
0.0030344
0.0034045
0.00365612
0.0037587
0.00299915
0.00295698
0.00287206
0.00273162
0.00256767
0.00239504
0.00221345
0.00203557
0.00188166
0.00178529
0.0017589
0.0017853
0.00187777
0.002046
0.0022715
0.00255397
0.00288371
0.00320369
0.00344306
0.00354954
0.0029804
0.00293595
0.00284894
0.00270708
0.00253862
0.00236191
0.00218312
0.00201093
0.00185745
0.00174058
0.00168039
0.00169753
0.00181269
0.00205331
0.00239059
0.0027843
0.00318851
0.00354411
0.00378876
0.00386351
0.0029654
0.00291822
0.00282883
0.00268557
0.00251322
0.00233025
0.00214775
0.00197378
0.00182424
0.00172348
0.00170124
0.00176469
0.00190561
0.00213517
0.00243993
0.00278325
0.00313782
0.00345983
0.00369066
0.00376494
0.0205527
0.0139399
0.0054639
-0.000894517
-0.0028588
-0.00213823
-0.00109359
-0.000434851
-9.84929e-05
1.86569e-05
9.84987e-06
2.67622e-05
7.2947e-05
2.54538e-05
-5.60096e-05
-4.58125e-05
1.47067e-06
1.83076e-05
1.13714e-05
-1.72594e-05
-3.38204e-05
-2.53606e-05
-4.26879e-05
-8.53535e-05
-0.000113026
-0.000139281
-0.000168485
-0.000168628
-0.000153779
-0.000155426
-0.000158525
-0.000141639
-0.000125115
-0.000127836
-0.000132402
-0.000123664
-0.000117684
-0.000118923
-0.000115315
-0.000105676
-0.000103648
-0.000115757
-0.000127827
-0.00013972
-0.000162446
-0.00018764
-0.000215567
-0.000251663
-0.000286836
-0.000329824
-0.000373542
-0.000408583
-0.000445138
-0.000478161
-0.000494943
-0.00049771
-0.0004972
-0.000507991
-0.000532133
-0.000554826
-0.000575168
-0.00059322
-0.000616811
-0.000633348
-0.000610103
-0.000568897
-0.00055635
-0.000560262
-0.000542686
-0.000528574
-0.000526731
-0.000517448
-0.000490994
-0.00046315
-0.000433222
-0.000394975
-0.000352715
-0.000306223
-0.00025895
-0.000206459
-0.000153028
-9.49089e-05
-3.84101e-05
2.19654e-05
8.26051e-05
0.000146617
0.00021307
0.000279727
0.000350007
0.000416293
0.000487781
0.000559408
0.000631293
0.000711429
0.000778649
0.000857053
0.000919336
0.000973276
0.00100365
0.000991171
0.0196569
0.0137539
0.00553885
-0.00074191
-0.00276163
-0.00209237
-0.00106591
-0.000415765
-8.44255e-05
2.97207e-05
1.87558e-05
3.42527e-05
7.96475e-05
3.12924e-05
-5.11354e-05
-4.15138e-05
5.41045e-06
2.18537e-05
1.45894e-05
-1.43767e-05
-3.12635e-05
-2.29842e-05
-4.04782e-05
-8.33749e-05
-0.000111213
-0.000137598
-0.000166975
-0.000167246
-0.000152458
-0.000154187
-0.000157393
-0.000140576
-0.000124088
-0.000126867
-0.000131501
-0.000122801
-0.000116843
-0.000118119
-0.000114546
-0.000104929
-0.000102918
-0.000115059
-0.000127164
-0.000139077
-0.000161826
-0.000187045
-0.000214989
-0.000251113
-0.000286311
-0.00032932
-0.000373067
-0.000408127
-0.000444702
-0.000477757
-0.000494569
-0.000497358
-0.000496863
-0.000507666
-0.000531829
-0.000554547
-0.000574913
-0.000592983
-0.00061659
-0.000633156
-0.00060994
-0.000568739
-0.000556197
-0.00056013
-0.000542572
-0.000528465
-0.000526633
-0.000517364
-0.000490919
-0.000463081
-0.000433161
-0.000394922
-0.000352667
-0.00030618
-0.000258912
-0.000206426
-0.000152999
-9.48832e-05
-3.83869e-05
2.19853e-05
8.26228e-05
0.000146632
0.000213083
0.000279739
0.000350017
0.000416303
0.000487788
0.000559415
0.000631298
0.000711433
0.000778653
0.000857055
0.000919339
0.000973273
0.00100364
0.000991139
0.0188404
0.0135742
0.00570341
-0.000451874
-0.00258914
-0.00203014
-0.00103769
-0.000394647
-6.72671e-05
4.34713e-05
2.97238e-05
4.30867e-05
8.7029e-05
3.75022e-05
-4.59302e-05
-3.6963e-05
9.41948e-06
2.53434e-05
1.77243e-05
-1.15704e-05
-2.87729e-05
-2.06894e-05
-3.83923e-05
-8.15323e-05
-0.000109516
-0.000136032
-0.000165592
-0.00016598
-0.000151248
-0.000153071
-0.000156378
-0.000139612
-0.00012316
-0.000126008
-0.000130713
-0.000122044
-0.000116112
-0.000117426
-0.00011388
-0.000104275
-0.000102276
-0.00011445
-0.000126584
-0.000138511
-0.000161287
-0.000186529
-0.000214482
-0.000250632
-0.00028585
-0.000328881
-0.000372659
-0.000407732
-0.000444325
-0.00047741
-0.000494245
-0.000497049
-0.000496562
-0.000507376
-0.00053156
-0.000554299
-0.000574686
-0.000592775
-0.000616398
-0.000632997
-0.000609797
-0.000568591
-0.000556055
-0.000560015
-0.000542468
-0.000528365
-0.000526548
-0.000517293
-0.000490853
-0.00046302
-0.000433109
-0.000394875
-0.000352625
-0.000306143
-0.000258879
-0.000206397
-0.000152973
-9.48601e-05
-3.83663e-05
2.20029e-05
8.26384e-05
0.000146645
0.000213095
0.000279749
0.000350026
0.000416311
0.000487794
0.000559421
0.000631302
0.000711438
0.000778657
0.000857058
0.000919346
0.000973277
0.00100365
0.000991101
0.0180637
0.0133828
0.00591362
-8.49531e-05
-0.00235238
-0.00194198
-0.000997073
-0.000363121
-4.17197e-05
6.33932e-05
4.55512e-05
5.55045e-05
9.67471e-05
4.56718e-05
-3.86133e-05
-3.05404e-05
1.47323e-05
2.97567e-05
2.16928e-05
-7.90728e-06
-2.54727e-05
-1.77409e-05
-3.57946e-05
-7.9238e-05
-0.000107406
-0.000134107
-0.000163909
-0.00016447
-0.000149845
-0.000151781
-0.000155195
-0.000138502
-0.00012212
-0.000125066
-0.000129863
-0.000121248
-0.000115361
-0.000116722
-0.000113199
-0.000103604
-0.000101616
-0.00011382
-0.000125982
-0.000137925
-0.000160735
-0.000185999
-0.000213955
-0.000250128
-0.000285366
-0.000328424
-0.00037224
-0.000407324
-0.000443932
-0.000477043
-0.000493899
-0.000496718
-0.000496241
-0.000507063
-0.000531265
-0.000554025
-0.000574437
-0.00059255
-0.000616192
-0.000632823
-0.000609637
-0.00056842
-0.000555895
-0.000559888
-0.00054235
-0.000528251
-0.000526455
-0.000517215
-0.00049078
-0.000462952
-0.000433053
-0.000394823
-0.000352579
-0.000306101
-0.000258843
-0.000206364
-0.000152944
-9.48341e-05
-3.83431e-05
2.20227e-05
8.2656e-05
0.00014666
0.000213109
0.000279761
0.000350037
0.00041632
0.000487801
0.000559428
0.000631306
0.000711444
0.000778663
0.000857063
0.000919357
0.000973288
0.00100367
0.000991047
0.0172993
0.0131648
0.00613069
0.000302528
-0.00209121
-0.00184157
-0.000950511
-0.000324468
-8.61708e-06
8.99628e-05
6.73554e-05
7.27802e-05
0.000109856
5.67735e-05
-2.81297e-05
-2.12594e-05
2.21151e-05
3.56393e-05
2.6952e-05
-2.86846e-06
-2.08107e-05
-1.36316e-05
-3.21814e-05
-7.59744e-05
-0.000104402
-0.000131384
-0.000161538
-0.000162431
-0.00014803
-0.00015009
-0.000153606
-0.00013704
-0.000120798
-0.000123882
-0.000128817
-0.000120323
-0.00011453
-0.000115948
-0.000112454
-0.000102879
-0.000100902
-0.000113124
-0.000125308
-0.000137278
-0.000160132
-0.000185414
-0.000213362
-0.00024955
-0.000284808
-0.000327905
-0.000371772
-0.00040687
-0.000443482
-0.000476606
-0.000493481
-0.000496329
-0.000495869
-0.000506692
-0.000530903
-0.000553682
-0.000574133
-0.000592279
-0.000615936
-0.000632597
-0.000609425
-0.000568201
-0.000555691
-0.000559719
-0.000542194
-0.000528105
-0.000526336
-0.000517113
-0.000490684
-0.000462865
-0.000432979
-0.000394756
-0.000352518
-0.000306046
-0.000258795
-0.000206322
-0.000152907
-9.48004e-05
-3.8313e-05
2.20485e-05
8.26789e-05
0.000146679
0.000213127
0.000279776
0.000350052
0.000416331
0.000487811
0.000559438
0.000631313
0.000711453
0.000778671
0.000857071
0.000919374
0.000973311
0.00100371
0.000990979
0.0165493
0.0129185
0.0063375
0.000690605
-0.00181952
-0.00173573
-0.000903699
-0.000283979
2.82834e-05
0.000120733
9.34062e-05
9.38112e-05
0.000125837
7.05705e-05
-1.46377e-05
-9.1532e-06
3.16886e-05
4.31394e-05
3.3606e-05
3.65225e-06
-1.46844e-05
-8.26279e-06
-2.73738e-05
-7.14642e-05
-0.00010018
-0.000127509
-0.000158138
-0.000159624
-0.00014566
-0.000147859
-0.000151452
-0.000135083
-0.000119056
-0.000122306
-0.00012744
-0.000119184
-0.000113571
-0.000115075
-0.00011163
-0.000102103
-0.000100142
-0.000112359
-0.000124554
-0.000136564
-0.000159469
-0.000184759
-0.000212678
-0.000248863
-0.000284139
-0.000327291
-0.00037123
-0.000406354
-0.000442954
-0.000476063
-0.000492953
-0.000495851
-0.000495425
-0.000506237
-0.000530432
-0.000553231
-0.000573745
-0.000591937
-0.000615599
-0.000632277
-0.000609125
-0.000567908
-0.000555416
-0.000559479
-0.000541972
-0.000527906
-0.000526171
-0.000516967
-0.000490548
-0.000462743
-0.000432875
-0.000394661
-0.000352433
-0.00030597
-0.000258727
-0.000206262
-0.000152854
-9.47533e-05
-3.82709e-05
2.2085e-05
8.2711e-05
0.000146705
0.000213152
0.000279797
0.000350072
0.000416348
0.000487824
0.000559451
0.000631323
0.000711464
0.000778684
0.000857084
0.000919398
0.000973351
0.00100379
0.000990897
0.0158209
0.012644
0.00652654
0.00107453
-0.00153847
-0.00162392
-0.000857212
-0.000243319
6.74259e-05
0.000154278
0.00012207
0.000117121
0.000143679
8.61604e-05
8.47524e-07
4.91014e-06
4.29265e-05
5.19777e-05
4.14447e-05
1.14197e-05
-7.34832e-06
-1.86066e-06
-2.15186e-05
-6.57506e-05
-9.46818e-05
-0.000122324
-0.00015349
-0.000155853
-0.000142606
-0.000145002
-0.000148667
-0.000132576
-0.000116821
-0.000120217
-0.000125594
-0.000117719
-0.000112404
-0.000114043
-0.000110696
-0.000101275
-9.93433e-05
-0.000111528
-0.000123724
-0.000135796
-0.000158758
-0.000184032
-0.000211885
-0.000248027
-0.000283308
-0.000326532
-0.000370576
-0.000405753
-0.000442327
-0.000475379
-0.000492275
-0.000495255
-0.000494886
-0.000505662
-0.000529801
-0.000552621
-0.00057324
-0.000591499
-0.000615144
-0.000631816
-0.000608697
-0.000567509
-0.000555036
-0.000559124
-0.000541647
-0.000527624
-0.00052593
-0.000516748
-0.000490347
-0.000462565
-0.000432721
-0.00039452
-0.000352309
-0.000305858
-0.000258628
-0.000206174
-0.000152777
-9.46843e-05
-3.82091e-05
2.21388e-05
8.27584e-05
0.000146745
0.000213189
0.000279829
0.000350101
0.000416372
0.000487845
0.00055947
0.000631339
0.00071148
0.000778703
0.000857103
0.000919432
0.000973415
0.00100389
0.000990804
0.0151189
0.0123431
0.00669462
0.00145394
-0.00124643
-0.00150386
-0.000810376
-0.000203077
0.000108166
0.000190027
0.000152595
0.000141956
0.000162773
0.000102856
1.74693e-05
2.01319e-05
5.52431e-05
6.17621e-05
5.01458e-05
2.0066e-05
8.11691e-07
5.22042e-06
-1.49646e-05
-5.91613e-05
-8.81546e-05
-0.000115971
-0.000147635
-0.000151072
-0.000138796
-0.000141488
-0.000145274
-0.000129568
-0.000114129
-0.000117607
-0.000123216
-0.000115836
-0.000110935
-0.000112769
-0.000109596
-0.000100372
-9.85048e-05
-0.000110632
-0.000122825
-0.000134988
-0.000158022
-0.00018326
-0.00021099
-0.000247026
-0.000282273
-0.000325563
-0.000369746
-0.00040502
-0.000441563
-0.00047452
-0.000491417
-0.000494524
-0.00049424
-0.00050494
-0.000528952
-0.000551788
-0.000572573
-0.000590939
-0.00061454
-0.000631172
-0.000608102
-0.000566974
-0.000554509
-0.000558606
-0.000541173
-0.000527219
-0.000525574
-0.000516418
-0.000490049
-0.000462303
-0.00043249
-0.000394311
-0.000352124
-0.000305692
-0.00025848
-0.000206042
-0.000152662
-9.45822e-05
-3.81175e-05
2.22191e-05
8.28288e-05
0.000146806
0.000213245
0.000279877
0.000350145
0.000416409
0.000487876
0.000559498
0.000631364
0.000711503
0.000778731
0.00085713
0.000919476
0.000973511
0.00100404
0.000990702
0.0144474
0.0120202
0.00684025
0.00182796
-0.000943153
-0.00137429
-0.000762955
-0.000164117
0.000149696
0.000227584
0.000184721
0.00016804
0.000182821
0.000120285
3.47948e-05
3.61119e-05
6.83154e-05
7.22366e-05
5.94699e-05
2.93174e-05
9.53337e-06
1.27579e-05
-7.97617e-06
-5.20336e-05
-8.09516e-05
-0.000108786
-0.000140841
-0.000145419
-0.00013427
-0.000137357
-0.000141351
-0.000126162
-0.000111093
-0.000114574
-0.000120358
-0.000113525
-0.000109112
-0.000111192
-0.00010827
-9.93524e-05
-9.76084e-05
-0.00010967
-0.000121859
-0.000134148
-0.000157284
-0.000182483
-0.000210043
-0.000245892
-0.000281038
-0.000324351
-0.000368677
-0.000404086
-0.000440603
-0.000473438
-0.000490352
-0.000493654
-0.000493502
-0.000504072
-0.000527853
-0.000550668
-0.000571686
-0.000590218
-0.000613756
-0.000630314
-0.000607323
-0.000566291
-0.00055381
-0.00055788
-0.000540508
-0.000526649
-0.000525058
-0.000515934
-0.000489616
-0.000461924
-0.000432152
-0.000394006
-0.000351854
-0.000305451
-0.000258264
-0.00020585
-0.000152494
-9.44327e-05
-3.79837e-05
2.23367e-05
8.29319e-05
0.000146895
0.000213326
0.000279948
0.000350208
0.000416462
0.000487923
0.000559539
0.000631403
0.000711536
0.000778772
0.000857169
0.000919535
0.000973644
0.00100423
0.000990593
0.0138102
0.0116809
0.00696119
0.00219363
-0.000629964
-0.00123444
-0.000714656
-0.000127277
0.000191197
0.000266736
0.00021849
0.00019535
0.000203712
0.000138312
5.26912e-05
5.273e-05
8.20292e-05
8.32827e-05
6.92895e-05
3.90399e-05
1.87144e-05
2.0694e-05
-6.36247e-07
-4.45302e-05
-7.33097e-05
-0.000101066
-0.000133413
-0.000139122
-0.000129165
-0.000132709
-0.000136995