/*--------------------------------*- C++ -*----------------------------------*\
| =========                 |                                                 |
| \\      /  F ield         | OpenFOAM: The Open Source CFD Toolbox           |
|  \\    /   O peration     | Version:  2106                                  |
|   \\  /    A nd           | Website:  www.openfoam.com                      |
|    \\/     M anipulation  |                                                 |
\*---------------------------------------------------------------------------*/
FoamFile
{
    version     2.0;
    format      ascii;
    arch        "LSB;label=32;scalar=64";
    class       volScalarField;
    location    "0.25";
    object      p;
}
// * * * * * * * * * * * * * * * * * * * * * * * * * * * * * * * * * * * * * //

dimensions      [0 2 -2 0 0 0 0];

internalField   nonuniform List<scalar> 
9600
(
1.05918e-10
0.000928147
0.000762645
0.000987449
0.00125989
0.00134532
0.00088774
0.00135622
0.00261762
0.00210066
0.00230216
0.00344263
0.00457333
0.00394464
0.00515368
0.0053888
0.00571563
0.00669557
0.00710737
0.0095188
1.60058e-06
0.000924946
0.00076402
0.000988111
0.00125787
0.00133948
0.000902368
0.00136087
0.00260871
0.00210372
0.002312
0.00343352
0.00457862
0.00391891
0.00516082
0.0053385
0.00571413
0.00654866
0.0071308
0.00914879
3.43496e-06
0.000921606
0.000766209
0.000988323
0.00125498
0.00133358
0.000909814
0.00136521
0.00259992
0.0021045
0.00231652
0.00341819
0.0045822
0.00388534
0.00516446
0.0052795
0.00570339
0.00643182
0.00713318
0.00873984
5.40795e-06
0.000918345
0.000768708
0.000988327
0.00125192
0.00132735
0.000920924
0.00137131
0.00259205
0.00210208
0.00231986
0.0033973
0.00458371
0.00384501
0.00516273
0.00522123
0.00569046
0.00632813
0.00710378
0.00836476
7.816e-06
0.000914991
0.000771609
0.000988124
0.00124842
0.00132096
0.000931424
0.00137876
0.00258389
0.00209777
0.00232251
0.00337193
0.00458547
0.00379888
0.00516329
0.00516146
0.00567978
0.00622564
0.00704834
0.00804279
1.07588e-05
0.00091143
0.000774893
0.000987506
0.00124448
0.00131454
0.000941472
0.00138668
0.00257528
0.00209264
0.00232425
0.00334459
0.0045882
0.00375102
0.00516549
0.00510161
0.00566965
0.00612264
0.00697064
0.00775465
1.41742e-05
0.000907586
0.000778438
0.000986481
0.0012403
0.00130802
0.000951345
0.00139473
0.00256651
0.00208709
0.00232503
0.00331692
0.00459148
0.00370269
0.00516612
0.00504404
0.00565298
0.00602278
0.00686819
0.00748725
1.79499e-05
0.000903416
0.00078218
0.000985171
0.00123603
0.00130127
0.000961373
0.00140284
0.00255761
0.00208118
0.00232492
0.00328958
0.00459476
0.00365414
0.00516384
0.00498927
0.00562576
0.0059281
0.0067376
0.00723649
2.1997e-05
0.000898911
0.000786106
0.000983671
0.00123169
0.00129418
0.000971822
0.00141094
0.0025485
0.00207494
0.00232399
0.00326276
0.00459744
0.00360604
0.00515756
0.00493811
0.00558618
0.00583911
0.00657887
0.00699892
2.62696e-05
0.00089408
0.000790218
0.000982021
0.00122729
0.00128671
0.000982836
0.00141894
0.0025391
0.00206841
0.00232226
0.00323635
0.00459891
0.0035593
0.00514557
0.004892
0.00553245
0.00575559
0.00639434
0.00676936
3.07565e-05
0.00088892
0.000794523
0.000980231
0.00122282
0.00127883
0.000994484
0.0014268
0.00252937
0.00206162
0.00231967
0.00321019
0.00459873
0.00351476
0.00512601
0.0048522
0.00546282
0.00567672
0.00618778
0.00654116
3.54658e-05
0.000883415
0.00079903
0.000978297
0.0012183
0.00127051
0.0010068
0.00143447
0.00251922
0.00205458
0.00231611
0.00318424
0.00459638
0.00347318
0.0050973
0.00481957
0.00537591
0.00560084
0.00596436
0.00630724
4.04155e-05
0.000877539
0.000803747
0.000976206
0.00121372
0.00126171
0.00101977
0.00144193
0.00250853
0.00204735
0.00231141
0.00315858
0.00459124
0.0034354
0.005058
0.00479438
0.0052712
0.00552482
0.00573059
0.00606223
4.56288e-05
0.000871255
0.00080868
0.00097394
0.0012091
0.00125242
0.0010334
0.00144916
0.00249719
0.00204004
0.00230533
0.0031334
0.00458257
0.00340224
0.00500682
0.00477599
0.00514962
0.00544434
0.0054937
0.00580372
5.11324e-05
0.00086452
0.000813832
0.000971486
0.00120444
0.00124264
0.00104762
0.00145617
0.00248506
0.00203279
0.00229758
0.00310906
0.00456965
0.00337426
0.00494283
0.0047633
0.00501356
0.00535412
0.00526058
0.00553169
5.69568e-05
0.000857285
0.000819205
0.000968831
0.00119977
0.00123237
0.00106237
0.00146301
0.00247197
0.00202578
0.00228778
0.0030859
0.00455192
0.0033516
0.00486588
0.00475454
0.00486623
0.00524917
0.00503677
0.0052477
6.31359e-05
0.000849497
0.000824795
0.000965967
0.00119508
0.00122165
0.00107757
0.0014698
0.00245765
0.00201921
0.00227559
0.00306412
0.00452895
0.00333418
0.00477636
0.0047468
0.00471136
0.00512561
0.00482582
0.00495514
6.97081e-05
0.000841099
0.000830593
0.000962896
0.00119036
0.00121053
0.0010931
0.0014767
0.0024418
0.00201337
0.00226075
0.00304377
0.00450048
0.00332152
0.00467505
0.00473679
0.00455271
0.00498095
0.00462919
0.0046588
7.67158e-05
0.000832031
0.000836581
0.000959634
0.00118557
0.00119909
0.00110877
0.0014839
0.00242412
0.00200847
0.00224301
0.00302466
0.00446667
0.0033124
0.00456342
0.00472149
0.00439327
0.00481492
0.0044467
0.00436383
8.42013e-05
0.000822237
0.000842724
0.000956209
0.00118065
0.00118747
0.00112434
0.00149165
0.00240437
0.00200458
0.00222227
0.00300645
0.004428
0.00330535
0.0044432
0.00469824
0.00423551
0.00462888
0.00427623
0.00407543
9.2211e-05
0.000811663
0.000848971
0.000952666
0.00117552
0.00117584
0.00113953
0.00150018
0.0023823
0.00200167
0.00219873
0.00298844
0.0043851
0.00329922
0.00431573
0.00466443
0.00408163
0.00442475
0.00411448
0.00379899
0.000100798
0.000800247
0.000855248
0.000949076
0.00117011
0.00116434
0.0011539
0.00150968
0.00235781
0.00199957
0.00217277
0.00296962
0.00433872
0.00329323
0.00418179
0.00461784
0.00393337
0.0042049
0.00395804
0.0035398
0.000110006
0.000787937
0.000861468
0.000945536
0.00116424
0.00115328
0.00116711
0.00152025
0.00233087
0.00199796
0.00214497
0.00294884
0.00428952
0.00328684
0.00404215
0.00455679
0.00379188
0.00397202
0.00380329
0.00330235
0.00011988
0.000774731
0.000867654
0.000942189
0.00115775
0.00114298
0.00117897
0.00153187
0.00230159
0.00199626
0.00211626
0.00292509
0.00423777
0.00327965
0.00389779
0.00448
0.00365781
0.003729
0.00364639
0.00309005
0.000130472
0.000760609
0.000873346
0.000939203
0.00115043
0.00113363
0.00118915
0.00154438
0.00227034
0.00199364
0.00208801
0.00289739
0.00418306
0.00327126
0.0037498
0.00438648
0.00353165
0.00347941
0.00348326
0.00290461
0.000141823
0.00074559
0.000878403
0.00093676
0.00114208
0.00112537
0.00119769
0.00155744
0.00223765
0.0019891
0.00206082
0.00286558
0.00412468
0.0032613
0.00359922
0.00427539
0.00341346
0.0032277
0.00331002
0.00274556
0.000153966
0.000729736
0.000882559
0.00093505
0.00113254
0.00111829
0.00120476
0.00157058
0.00220424
0.00198167
0.002035
0.00283039
0.00406188
0.00324912
0.00344726
0.00414603
0.00330221
0.00297906
0.00312403
0.00261037
0.000166918
0.000713174
0.000885443
0.000934237
0.00112176
0.00111235
0.0012106
0.00158316
0.00217102
0.00197052
0.00200999
0.00279278
0.00399405
0.00323365
0.00329542
0.00399882
0.00319617
0.00273875
0.00292379
0.00249415
0.000180675
0.000696056
0.000886714
0.000934438
0.00110971
0.00110744
0.00121547
0.00159428
0.00213867
0.00195401
0.00198456
0.00275359
0.00392133
0.00321355
0.00314476
0.00383539
0.00309332
0.00251138
0.002709
0.0023899
0.000195219
0.000678581
0.000886021
0.00093569
0.00109649
0.00110325
0.00122006
0.00160315
0.00210741
0.00193388
0.00195722
0.00271263
0.00384448
0.00318775
0.00299576
0.00365769
0.00299122
0.00230072
0.00248134
0.00228921
0.000210482
0.000661039
0.000883013
0.000937946
0.00108234
0.00109924
0.00122538
0.00160941
0.00207693
0.0019112
0.00192671
0.00266907
0.00376418
0.00315577
0.00284874
0.00346756
0.0028874
0.00210984
0.00224465
0.00218281
0.000226381
0.000643725
0.000877398
0.000941022
0.00106757
0.00109476
0.00123204
0.00161296
0.00204643
0.00188765
0.00189308
0.00262149
0.00368052
0.00311779
0.00270419
0.00326659
0.00277947
0.0019408
0.00200493
0.00206191
0.000242788
0.000626948
0.000868942
0.000944581
0.00105272
0.00108913
0.0012401
0.00161393
0.00201491
0.00186352
0.00185651
0.00256854
0.00359286
0.0030745
0.00256308
0.00305678
0.00266513
0.00179369
0.00176967
0.00192037
0.000259522
0.000611043
0.000857546
0.000948134
0.00103839
0.00108176
0.00124967
0.00161307
0.0019812
0.00183806
0.00181812
0.00250977
0.00350036
0.00302629
0.00242662
0.00284087
0.00254224
0.00166625
0.00154679
0.00175652
0.000276377
0.000596337
0.000843341
0.000950927
0.00102521
0.0010724
0.00126074
0.00161147
0.00194453
0.00181072
0.00177884
0.00244504
0.00340231
0.00297296
0.00229549
0.00262165
0.00240962
0.00155455
0.00134308
0.00157405
0.000293086
0.000583114
0.000826704
0.000952059
0.00101355
0.00106108
0.00127106
0.00161025
0.00190469
0.00177969
0.00173915
0.00237506
0.00329799
0.0029138
0.00217024
0.00240171
0.00226762
0.00145441
0.00116222
0.00138101
0.000309405
0.000571607
0.000808157
0.000950594
0.00100353
0.00104815
0.00127961
0.00161022
0.00186219
0.00174271
0.0016986
0.00230203
0.00318713
0.00284768
0.00205154
0.00218328
0.00211735
0.00136268
0.00100465
0.00118769
0.000325106
0.000561936
0.000788443
0.000945672
0.000994921
0.00103435
0.00128548
0.00161147
0.00181883
0.00169819
0.00165543
0.0022278
0.00307094
0.0027736
0.00193904
0.0019688
0.00195994
0.00127676
0.000868256
0.00100431
0.000339972
0.000554082
0.0007684
0.00093671
0.000987031
0.00102063
0.00128776
0.00161366
0.00177637
0.00164601
0.00160682
0.00215257
0.00295234
0.00269173
0.00183043
0.00176003
0.00179748
0.0011955
0.000749322
0.000836976
0.000353851
0.000547833
0.000748969
0.00092339
0.000978717
0.00100798
0.00128608
0.00161571
0.0017359
0.00158651
0.00155027
0.00207511
0.00283404
0.0026039
0.00172391
0.00155672
0.00163152
0.00112116
0.000646071
0.000684566
0.000366608
0.000542858
0.000731121
0.00090589
0.000968361
0.000996974
0.00128088
0.00161566
0.00169807
0.00152221
0.00148419
0.00199323
0.0027172
0.00251311
0.00162027
0.00135821
0.00146022
0.00105526
0.000561965
0.000542761
0.000378168
0.000538687
0.000715638
0.000885023
0.000954295
0.000987589
0.00127317
0.0016113
0.00166661
0.00145648
0.00140824
0.00190373
0.00260151
0.00242282
0.00152131
0.00116535
0.00127964
0.000993
0.000503095
0.000412291
0.000388531
0.000534718
0.000702824
0.000862137
0.000934879
0.000979092
0.0012644
0.00160128
0.00163481
0.00139218
0.0013241
0.00180399
0.00248446
0.00233537
0.00143015
0.000980697
0.00108789
0.000924914
0.000471926
0.000301217
0.000397739
0.000530404
0.000692871
0.000838924
0.000909028
0.00096958
0.00125656
0.0015857
0.00160019
0.00133034
0.00123609
0.0016937
0.00236157
0.00225026
0.00135125
0.000808633
0.000886956
0.000839963
0.0004606
0.000219618
0.000405893
0.000525273
0.000685252
0.000817112
0.000876428
0.000956208
0.00125084
0.00156585
0.00156014
0.00127082
0.0011489
0.00157324
0.00222889
0.00216508
0.00128636
0.000655658
0.000683319
0.000730065
0.000454546
0.000173351
0.000413157
0.00051886
0.000679216
0.000798292
0.000837756
0.000935791
0.00124685
0.00154536
0.00151393
0.00121078
0.00106525
0.00144769
0.00208477
0.00207397
0.00123349
0.000527959
0.000485849
0.000595574
0.000436342
0.00015843
0.000419734
0.000510832
0.000673634
0.000783763
0.0007948
0.000905392
0.00124308
0.00152824
0.00146241
0.00114441
0.000984526
0.00132546
0.00193118
0.00196906
0.00118839
0.000428611
0.000304827
0.000445683
0.000391291
0.000160827
0.000425823
0.00050102
0.000667174
0.000774311
0.000750165
0.000862888
0.00123621
0.00151704
0.00140761
0.00106803
0.000904736
0.00121199
0.00177412
0.00184688
0.00114048
0.000354825
0.000150759
0.000293343
0.000316082
0.00015758
0.00043149
0.000489431
0.000658323
0.000770047
0.000707272
0.000807751
0.00122097
0.00151237
0.00135601
0.000981167
0.000819358
0.00110734
0.00162397
0.00171222
0.00107775
0.000298244
2.81086e-05
0.000154506
0.000222088
0.000125471
0.000437003
0.000476267
0.00064571
0.000770364
0.000669217
0.000740663
0.00119164
0.00151289
0.00131483
0.000886446
0.000720246
0.00100804
0.00148975
0.0015727
0.000996271
0.000244542
-7.06635e-05
4.1404e-05
0.00013112
6.07557e-05
0.000442239
0.000461974
0.000628205
0.000773683
0.000638901
0.000663861
0.00114386
0.00151525
0.00128911
0.000788504
0.000602719
0.000907127
0.00137469
0.00144061
0.000899463
0.000181479
-0.00015678
-5.0927e-05
6.73547e-05
-1.38769e-05
0.000447049
0.000447218
0.000605063
0.000777597
0.000618513
0.000581448
0.00107481
0.00151315
0.00128074
0.000696828
0.000467643
0.000792748
0.00127391
0.00133029
0.000795479
0.000102919
-0.000242077
-0.000137261
3.31168e-05
-6.37507e-05
0.000451147
0.000433001
0.000576064
0.000779281
0.000609246
0.000498746
0.000983508
0.00149851
0.00128848
0.00062316
0.000319857
0.000654643
0.00117836
0.00124848
0.000701145
9.02623e-06
-0.00033613
-0.00023054
6.44749e-06
-6.4246e-05
0.00045413
0.000419932
0.000541433
0.000775548
0.000611305
0.000421808
0.000871388
0.0014633
0.00130864
0.00057616
0.000167668
0.000488494
0.00107373
0.00119037
0.00063539
-9.11254e-05
-0.000446998
-0.000338107
-3.5856e-05
-2.789e-05
0.000455421
0.000408539
0.000502091
0.000763475
0.000622844
0.000356184
0.000741762
0.00140089
0.00133362
0.000560282
2.50264e-05
0.000296673
0.000944358
0.00114623
0.000608005
-0.000176803
-0.000574902
-0.00046573
-0.000110126
1.06064e-05
0.000454413
0.000399148
0.000459826
0.000740761
0.000640304
0.00030638
0.000601072
0.00130694
0.00135311
0.000575151
-9.29696e-05
8.7165e-05
0.000778646
0.00109951
0.000616403
-0.000225418
-0.00070872
-0.000619733
-0.000220165
2.05013e-05
0.000450442
0.000391748
0.000417212
0.000705814
0.000658889
0.000275486
0.00045812
0.00118014
0.00135556
0.000616726
-0.000173937
-0.000126894
0.000573371
0.00102866
0.000649173
-0.000223276
-0.000824238
-0.000797359
-0.000369126
-1.56877e-05
0.000442993
0.000386068
0.000376623
0.000658464
0.000672851
0.000264646
0.00032284
0.00102323
0.00133019
0.00067629
-0.000210614
-0.000327655
0.000335098
0.000916332
0.000686743
-0.000170072
-0.000894064
-0.000983114
-0.000559242
-0.000105107
0.000431799
0.000381315
0.000340071
0.000599875
0.000676685
0.000272233
0.000204106
0.00084209
0.00126834
0.00073973
-0.000201992
-0.000496626
7.55204e-05
0.000753223
0.000703638
-8.00384e-05
-0.000899282
-0.0011462
-0.000782618
-0.000253763
0.000416661
0.000376336
0.000309213
0.000532418
0.000665706
0.000293126
0.000108685
0.000647272
0.00116539
0.000790843
-0.000152542
-0.000618476
-0.00018728
0.000539537
0.000679089
2.41261e-05
-0.000840497
-0.00125318
-0.00101615
-0.000461475
0.000397767
0.00036979
0.000284398
0.000459994
0.000637083
0.00031979
4.06325e-05
0.000452836
0.00102245
0.000814895
-7.31251e-05
-0.000684647
-0.000429902
0.000285572
0.0005986
0.000115496
-0.00073474
-0.0012852
-0.00122096
-0.000711954
0.000375618
0.000360292
0.000265301
0.000387483
0.000590121
0.000343644
4.86337e-07
0.000272421
0.000845356
0.00080049
1.78745e-05
-0.000695715
-0.000631406
9.3591e-06
0.000455013
0.000171052
-0.000605162
-0.00124762
-0.00136276
-0.00097185
0.000350781
0.000346825
0.000250732
0.000319024
0.000526397
0.000356754
-1.43885e-05
0.000116394
0.000645207
0.000741487
0.000100396
-0.000658204
-0.000777605
-0.000262437
0.000255411
0.000171226
-0.000478933
-0.00115903
-0.00142745
-0.00119781
0.000323988
0.000328804
0.000238592
0.000257506
0.000449373
0.000353321
-1.11436e-05
-9.19443e-06
0.00043772
0.000638903
0.000157322
-0.000586361
-0.000863272
-0.000504299
1.75262e-05
0.000104072
-0.000381622
-0.00104197
-0.0014232
-0.00135921
0.000295901
0.00030609
0.000226476
0.000204353
0.00036442
0.000330287
3.10035e-07
-0.000102193
0.000238982
0.000499172
0.000176188
-0.000501346
-0.000892674
-0.00069911
-0.000232181
-2.56605e-05
-0.000335197
-0.000922553
-0.00136827
-0.00144706
0.000267009
0.000278957
0.000212002
0.000159474
0.000277865
0.000287893
9.66324e-06
-0.000164907
6.1721e-05
0.000333764
0.00015182
-0.000423896
-0.00087611
-0.000838172
-0.000466555
-0.000200607
-0.000351087
-0.000826126
-0.00128475
-0.00147117
0.000237611
0.000248101
0.000193391
0.000121611
0.000195173
0.000228973
8.84828e-06
-0.000203069
-8.63067e-05
0.000158499
8.70989e-05
-0.000370178
-0.000831799
-0.00092258
-0.000666694
-0.000396772
-0.000424751
-0.000772012
-0.00119726
-0.00144969
0.000207856
0.00021445
0.000169795
8.86964e-05
0.000119637
0.00015828
-6.5491e-06
-0.000226178
-0.000203043
-1.12872e-05
-1.02124e-05
-0.000349872
-0.000780178
-0.000960761
-0.000822032
-0.000589577
-0.000540626
-0.000767881
-0.00112713
-0.00140369
0.000177716
0.00017898
0.000141318
5.82382e-05
5.25286e-05
8.17487e-05
-3.74138e-05
-0.000244195
-0.000291457
-0.000164248
-0.000128328
-0.000364879
-0.000737526
-0.000966742
-0.00093141
-0.000760842
-0.000678601
-0.000808804
-0.00108821
-0.00135407
0.000147147
0.000142616
0.000108665
2.79732e-05
-6.35273e-06
4.8991e-06
-8.17171e-05
-0.000264585
-0.000357073
-0.000294267
-0.000253533
-0.000410294
-0.000714495
-0.000957401
-0.00100163
-0.000900392
-0.000818803
-0.000882235
-0.00108454
-0.00131687
0.000116161
0.000106045
7.28306e-05
-3.59703e-06
-5.82001e-05
-6.82604e-05
-0.000135808
-0.000291541
-0.000407379
-0.000400462
-0.000374316
-0.000477711
-0.000715545
-0.000946766
-0.00104293
-0.00100627
-0.00094672
-0.000973215
-0.00111188
-0.00130096
8.48298e-05
6.97654e-05
3.50721e-05
-3.70431e-05
-0.000104668
-0.000135562
-0.000195318
-0.000326327
-0.00044967
-0.000485735
-0.000483516
-0.000557109
-0.00073906
-0.000944204
-0.00106738
-0.00108307
-0.00105475
-0.00106785
-0.00116115
-0.00130781
5.33612e-05
3.41677e-05
-3.36924e-06
-7.22113e-05
-0.000147376
-0.000196288
-0.000256086
-0.000367908
-0.000489254
-0.000554467
-0.000578028
-0.000639367
-0.00077954
-0.000954129
-0.00108537
-0.0011378
-0.0011413
-0.00115637
-0.00122223
-0.00133375
2.21055e-05
-4.14155e-07
-4.14086e-05
-0.00010842
-0.000187541
-0.000250666
-0.000315026
-0.000413972
-0.000528904
-0.000611427
-0.00065783
-0.00071809
-0.00083046
-0.000976683
-0.0011041
-0.00117844
-0.00120898
-0.00123386
-0.0012864
-0.00137257
-8.45918e-06
-3.36081e-05
-7.81308e-05
-0.000144726
-0.000225818
-0.000299362
-0.000370218
-0.000461945
-0.000569481
-0.000660726
-0.000724786
-0.000789587
-0.000885611
-0.00100909
-0.00112725
-0.00121203
-0.00126216
-0.0012992
-0.00134774
-0.00141789
-3.77226e-05
-6.49676e-05
-0.000112771
-0.000180066
-0.000262289
-0.000343044
-0.000420499
-0.000509365
-0.000610736
-0.000705316
-0.000781445
-0.000852515
-0.000940151
-0.00104732
-0.00115531
-0.00124331
-0.00130581
-0.0013537
-0.00140335
-0.0014647
-6.4954e-05
-9.39246e-05
-0.000144651
-0.000213348
-0.000296499
-0.000382177
-0.000465344
-0.000554021
-0.000651371
-0.000746723
-0.000830312
-0.00090725
-0.000991256
-0.00108756
-0.00118666
-0.00127428
-0.00134389
-0.00139999
-0.00145264
-0.00150998
-8.93335e-05
-0.000119756
-0.000173027
-0.000243478
-0.000327622
-0.000416714
-0.000504567
-0.000594374
-0.000689361
-0.000784456
-0.000872533
-0.000954364
-0.00103762
-0.00112709
-0.00121887
-0.00130426
-0.00137747
-0.00143939
-0.0014957
-0.00155218
-0.00011033
-0.000141812
-0.000196928
-0.000268943
-0.000353937
-0.000445215
-0.000536581
-0.000628029
-0.000721837
-0.000816188
-0.000906722
-0.000992378
-0.00107653
-0.00116241
-0.00124896
-0.00133145
-0.00140567
-0.00147095
-0.00153002
-0.00158663
-0.000128277
-0.000162971
-0.000221632
-0.000296741
-0.000383998
-0.000477832
-0.000572675
-0.000666978
-0.00076178
-0.000856507
-0.000948684
-0.00103706
-0.00112301
-0.00120838
-0.00129283
-0.00137369
-0.0014481
-0.00151515
-0.00157619
-0.00163371
0.0117535
0.00719214
-0.000599982
-0.00643834
-0.00802124
-0.00720232
-0.00606741
-0.00530005
-0.00493714
-0.00483493
-0.00484685
-0.00491609
-0.00496922
-0.004865
-0.00472773
-0.00481275
-0.00497432
-0.00497271
-0.00489817
-0.00488578
-0.00493698
-0.00501013
-0.00503605
-0.00500508
-0.00501837
-0.005124
-0.00521894
-0.00522187
-0.00521643
-0.00529031
-0.00536883
-0.00537137
-0.00536617
-0.00540693
-0.00542697
-0.00540107
-0.005383
-0.00537636
-0.00535388
-0.00532847
-0.0053102
-0.00528847
-0.00526475
-0.0052415
-0.00521476
-0.00519123
-0.00517573
-0.00515921
-0.00513851
-0.00512165
-0.00511044
-0.00509958
-0.00508805
-0.00507883
-0.00507234
-0.00506737
-0.00506357
-0.00506165
-0.00506134
-0.00506276
-0.00506539
-0.00506977
-0.00507515
-0.00508234
-0.00509025
-0.00510017
-0.0051106
-0.00512317
-0.00513599
-0.00515079
-0.00516577
-0.00518216
-0.00519916
-0.0052165
-0.0052355
-0.00525331
-0.00527422
-0.00529247
-0.00531475
-0.0053341
-0.00535662
-0.00537829
-0.00539968
-0.00542451
-0.00544451
-0.00547142
-0.00549195
-0.00551762
-0.00554179
-0.00556318
-0.00559117
-0.00560922
-0.00563507
-0.00565383
-0.00566646
-0.00568736
-0.00566113
-0.00566288
-0.00552874
-0.00529071
0.011058
0.007076
-0.000498379
-0.00631316
-0.00794815
-0.0071651
-0.00604346
-0.00528262
-0.00492384
-0.0048242
-0.00483785
-0.00490864
-0.00496327
-0.00485985
-0.00472263
-0.00480818
-0.00497067
-0.00496949
-0.00489507
-0.00488288
-0.00493434
-0.00500781
-0.00503403
-0.00500316
-0.00501648
-0.00512232
-0.00521755
-0.00522061
-0.00521518
-0.00528919
-0.00536794
-0.00537058
-0.00536541
-0.00540629
-0.00542647
-0.00540062
-0.0053826
-0.00537605
-0.00535361
-0.00532823
-0.00531001
-0.00528831
-0.00526462
-0.0052414
-0.00521467
-0.00519116
-0.00517567
-0.00515917
-0.00513848
-0.00512162
-0.00511042
-0.00509957
-0.00508804
-0.00507883
-0.00507234
-0.00506736
-0.00506357
-0.00506165
-0.00506134
-0.00506276
-0.00506539
-0.00506977
-0.00507516
-0.00508234
-0.00509025
-0.00510017
-0.00511061
-0.00512317
-0.00513599
-0.00515079
-0.00516577
-0.00518216
-0.00519916
-0.0052165
-0.0052355
-0.00525331
-0.00527422
-0.00529247
-0.00531475
-0.0053341
-0.00535662
-0.00537829
-0.00539968
-0.00542452
-0.00544451
-0.00547142
-0.00549195
-0.00551762
-0.00554179
-0.00556318
-0.00559117
-0.00560922
-0.00563507
-0.00565383
-0.00566646
-0.00568736
-0.00566113
-0.00566287
-0.00552871
-0.00529057
0.0104236
0.00701011
-0.00026184
-0.00605869
-0.00781688
-0.00711397
-0.00601817
-0.00526429
-0.00490915
-0.00481239
-0.00482778
-0.00489974
-0.00495593
-0.00485395
-0.0047175
-0.00480376
-0.00496698
-0.00496615
-0.00489204
-0.00488018
-0.00493185
-0.00500557
-0.00503204
-0.00500129
-0.0050147
-0.00512076
-0.00521624
-0.00521936
-0.00521394
-0.00528812
-0.00536708
-0.00536978
-0.00536463
-0.00540567
-0.00542598
-0.00540015
-0.00538219
-0.00537572
-0.00535333
-0.00532798
-0.0053098
-0.00528815
-0.00526447
-0.00524128
-0.00521458
-0.00519107
-0.00517561
-0.00515912
-0.00513844
-0.00512158
-0.00511039
-0.00509955
-0.00508803
-0.00507881
-0.00507233
-0.00506736
-0.00506357
-0.00506164
-0.00506134
-0.00506276
-0.00506539
-0.00506977
-0.00507516
-0.00508234
-0.00509025
-0.00510017
-0.00511061
-0.00512317
-0.00513599
-0.00515079
-0.00516577
-0.00518216
-0.00519916
-0.0052165
-0.0052355
-0.00525331
-0.00527422
-0.00529247
-0.00531475
-0.0053341
-0.00535662
-0.00537829
-0.00539968
-0.00542452
-0.00544451
-0.00547142
-0.00549195
-0.00551762
-0.00554179
-0.00556318
-0.00559117
-0.00560922
-0.00563507
-0.00565383
-0.00566646
-0.00568737
-0.00566113
-0.00566289
-0.00552874
-0.00529039
0.00983277
0.00694401
2.92223e-05
-0.00573371
-0.00763709
-0.00704357
-0.00598379
-0.00523874
-0.00488849
-0.00479662
-0.004815
-0.00488773
-0.00494497
-0.00484551
-0.00471125
-0.0047982
-0.00496147
-0.00496123
-0.00488827
-0.00487718
-0.00492886
-0.00500254
-0.00502934
-0.00499898
-0.0050126
-0.0051188
-0.00521442
-0.00521767
-0.00521236
-0.00528672
-0.00536585
-0.00536861
-0.00536356
-0.00540477
-0.00542521
-0.00539944
-0.00538157
-0.00537523
-0.00535291
-0.00532761
-0.0053095
-0.00528788
-0.00526425
-0.0052411
-0.00521443
-0.00519094
-0.0051755
-0.00515903
-0.00513836
-0.00512153
-0.00511035
-0.00509951
-0.005088
-0.00507879
-0.00507232
-0.00506735
-0.00506356
-0.00506164
-0.00506134
-0.00506276
-0.00506539
-0.00506977
-0.00507516
-0.00508234
-0.00509025
-0.00510017
-0.00511061
-0.00512317
-0.00513599
-0.00515079
-0.00516577
-0.00518216
-0.00519916
-0.0052165
-0.0052355
-0.00525331
-0.00527422
-0.00529247
-0.00531475
-0.0053341
-0.00535662
-0.0053783
-0.00539968
-0.00542452
-0.00544451
-0.00547142
-0.00549196
-0.00551762
-0.00554179
-0.00556318
-0.00559117
-0.00560922
-0.00563507
-0.00565384
-0.00566646
-0.00568738
-0.00566114
-0.00566293
-0.00552885
-0.00529016
0.00923993
0.00683014
0.000321079
-0.00538669
-0.0074384
-0.00696495
-0.00594509
-0.00520786
-0.00486201
-0.00477628
-0.00479886
-0.00487182
-0.00492925
-0.00483361
-0.00470355
-0.00479099
-0.004953
-0.00495351
-0.00488306
-0.00487357
-0.00492507
-0.00499818
-0.00502533
-0.0049959
-0.00500996
-0.00511597
-0.00521152
-0.00521513
-0.00521018
-0.00528463
-0.0053638
-0.00536672
-0.00536189
-0.00540329
-0.00542385
-0.00539821
-0.00538052
-0.00537435
-0.00535215
-0.00532697
-0.00530896
-0.00528742
-0.00526383
-0.00524076
-0.00521416
-0.00519071
-0.00517531
-0.00515887
-0.00513823
-0.00512142
-0.00511026
-0.00509944
-0.00508794
-0.00507875
-0.00507228
-0.00506732
-0.00506354
-0.00506163
-0.00506133
-0.00506275
-0.00506539
-0.00506977
-0.00507515
-0.00508234
-0.00509025
-0.00510017
-0.0051106
-0.00512317
-0.00513599
-0.00515079
-0.00516577
-0.00518216
-0.00519916
-0.0052165
-0.0052355
-0.00525331
-0.00527422
-0.00529247
-0.00531475
-0.0053341
-0.00535662
-0.0053783
-0.00539968
-0.00542452
-0.00544451
-0.00547142
-0.00549196
-0.00551762
-0.00554179
-0.00556318
-0.00559117
-0.00560923
-0.00563507
-0.00565384
-0.00566647
-0.0056874
-0.00566117
-0.005663
-0.00552903
-0.0052899
0.00864123
0.00666153
0.000606471
-0.00502444
-0.0072262
-0.00688187
-0.00590556
-0.00517478
-0.00483195
-0.00475266
-0.00478016
-0.00485296
-0.00490987
-0.00481902
-0.00469474
-0.00478218
-0.00494141
-0.00494264
-0.00487599
-0.00486911
-0.00492034
-0.00499227
-0.00501977
-0.00499197
-0.00500676
-0.00511203
-0.00520713
-0.00521144
-0.00520719
-0.00528156
-0.00536056
-0.0053638
-0.00535937
-0.00540092
-0.00542159
-0.0053962
-0.00537881
-0.00537287
-0.00535086
-0.00532589
-0.00530805
-0.0052866
-0.00526312
-0.00524017
-0.00521368
-0.00519031
-0.00517495
-0.00515856
-0.00513798
-0.00512123
-0.0051101
-0.00509931
-0.00508783
-0.00507866
-0.00507221
-0.00506727
-0.0050635
-0.00506159
-0.00506131
-0.00506274
-0.00506538
-0.00506976
-0.00507515
-0.00508234
-0.00509025
-0.00510017
-0.0051106
-0.00512317
-0.00513599
-0.00515079
-0.00516577
-0.00518216
-0.00519916
-0.0052165
-0.0052355
-0.00525331
-0.00527422
-0.00529247
-0.00531475
-0.00533411
-0.00535662
-0.0053783
-0.00539968
-0.00542452
-0.00544451
-0.00547142
-0.00549196
-0.00551762
-0.00554179
-0.00556318
-0.00559117
-0.00560923
-0.00563507
-0.00565385
-0.00566647
-0.00568742
-0.00566121
-0.00566313
-0.00552932
-0.00528963
0.00804818
0.00644874
0.000886617
-0.00464589
-0.00699934
-0.00679407
-0.00586606
-0.00514086
-0.00479951
-0.00472655
-0.0047595
-0.00483225
-0.00488846
-0.004803
-0.00468532
-0.00477228
-0.00492751
-0.00492923
-0.00486718
-0.00486364
-0.00491459
-0.0049849
-0.00501278
-0.00498727
-0.00500304
-0.00510698
-0.00520116
-0.0052065
-0.00520331
-0.00527736
-0.00535593
-0.00535969
-0.00535586
-0.00539748
-0.00541823
-0.00539325
-0.00537627
-0.00537059
-0.00534888
-0.00532423
-0.00530663
-0.00528533
-0.00526198
-0.00523921
-0.0052129
-0.00518967
-0.00517437
-0.00515805
-0.00513756
-0.0051209
-0.00510982
-0.00509907
-0.00508764
-0.00507851
-0.00507209
-0.00506717
-0.00506342
-0.00506153
-0.00506126
-0.00506271
-0.00506535
-0.00506975
-0.00507514
-0.00508234
-0.00509025
-0.00510017
-0.0051106
-0.00512317
-0.00513599
-0.00515079
-0.00516577
-0.00518216
-0.00519916
-0.0052165
-0.0052355
-0.00525331
-0.00527422
-0.00529247
-0.00531475
-0.00533411
-0.00535662
-0.0053783
-0.00539968
-0.00542452
-0.00544451
-0.00547142
-0.00549196
-0.00551762
-0.0055418
-0.00556318
-0.00559118
-0.00560923
-0.00563508
-0.00565386
-0.00566648
-0.00568745
-0.00566127
-0.0056633
-0.00552972
-0.00528935
0.00747488
0.00619823
0.00115684
-0.00425299
-0.00675704
-0.00670104
-0.00582714
-0.00510713
-0.00476531
-0.00469816
-0.00473711
-0.00481029
-0.0048659
-0.00478603
-0.00467534
-0.00476164
-0.00491223
-0.00491421
-0.0048571
-0.00485723
-0.00490789
-0.00497633
-0.0050047
-0.00498199
-0.00499891
-0.00510101
-0.00519382
-0.00520043
-0.00519861
-0.00527209
-0.00534997
-0.00535441
-0.00535136
-0.00539294
-0.00541373
-0.0053893
-0.00537283
-0.00536747
-0.00534613
-0.0053219
-0.00530461
-0.00528352
-0.00526036
-0.00523782
-0.00521178
-0.00518873
-0.00517351
-0.00515728
-0.00513694
-0.00512039
-0.00510939
-0.00509869
-0.00508733
-0.00507826
-0.00507189
-0.005067
-0.00506328
-0.00506143
-0.00506118
-0.00506264
-0.00506531
-0.00506972
-0.00507512
-0.00508232
-0.00509024
-0.00510017
-0.0051106
-0.00512317
-0.00513599
-0.00515079
-0.00516577
-0.00518216
-0.00519916
-0.0052165
-0.0052355
-0.00525331
-0.00527422
-0.00529247
-0.00531475
-0.00533411
-0.00535662
-0.0053783
-0.00539968
-0.00542452
-0.00544451
-0.00547142
-0.00549196
-0.00551762
-0.0055418
-0.00556318
-0.00559118
-0.00560924
-0.00563508
-0.00565387
-0.0056665
-0.00568749
-0.00566134
-0.00566352
-0.00553023
-0.00528909
0.00693242
0.00591316
0.00140785
-0.00384975
-0.0064984
-0.00660171
-0.00578889
-0.00507421
-0.00472966
-0.00466746
-0.00471302
-0.00478731
-0.0048424
-0.00476811
-0.00466467
-0.00475042
-0.00489612
-0.00489818
-0.0048461
-0.00485008
-0.00490042
-0.0049669
-0.00499583
-0.00497624
-0.00499446
-0.00509439
-0.0051855
-0.00519349
-0.00519324
-0.00526597
-0.00534293
-0.00534817
-0.00534603
-0.00538747
-0.00540825
-0.00538448
-0.00536861
-0.00536358
-0.00534268
-0.00531895
-0.00530202
-0.00528118
-0.00525824
-0.00523599
-0.00521029
-0.00518747
-0.00517236
-0.00515624
-0.00513608
-0.0051197
-0.00510879
-0.00509816
-0.00508689
-0.0050779
-0.00507159
-0.00506675
-0.00506308
-0.00506127
-0.00506105
-0.00506255
-0.00506524
-0.00506966
-0.00507508
-0.0050823
-0.00509023
-0.00510016
-0.0051106
-0.00512317
-0.00513599
-0.00515079
-0.00516577
-0.00518216
-0.00519916
-0.0052165
-0.0052355
-0.00525331
-0.00527422
-0.00529247
-0.00531475
-0.00533411
-0.00535662
-0.0053783
-0.00539968
-0.00542452
-0.00544451
-0.00547142
-0.00549196
-0.00551762
-0.0055418
-0.00556319
-0.00559118
-0.00560924
-0.00563509