/*--------------------------------*- C++ -*----------------------------------*\
| =========                 |                                                 |
| \\      /  F ield         | OpenFOAM: The Open Source CFD Toolbox           |
|  \\    /   O peration     | Version:  2106                                  |
|   \\  /    A nd           | Website:  www.openfoam.com                      |
|    \\/     M anipulation  |                                                 |
\*---------------------------------------------------------------------------*/
FoamFile
{
    version     2.0;
    format      ascii;
    arch        "LSB;label=32;scalar=64";
    class       volScalarField;
    location    "0.285";
    object      p;
}
// * * * * * * * * * * * * * * * * * * * * * * * * * * * * * * * * * * * * * //

dimensions      [0 2 -2 0 0 0 0];

internalField   nonuniform List<scalar> 
9600
(
-9.82474e-11
0.000201446
0.000771119
0.000508418
0.00160315
0.00124668
0.0014334
0.00232318
0.000737325
0.000312127
0.000392645
0.00146792
0.0014835
0.00209645
0.00265456
0.00451522
0.00451125
0.00698626
0.00874489
0.0141338
1.29041e-07
0.000201695
0.000771549
0.000508769
0.00160114
0.00123982
0.00144742
0.00230388
0.000740754
0.000310579
0.000393513
0.00147972
0.00148372
0.00209522
0.00265956
0.00450424
0.00452326
0.00692127
0.0087559
0.0134692
4.10416e-07
0.000201877
0.00077182
0.000508638
0.00159701
0.00123204
0.00146036
0.00227659
0.000752835
0.000313416
0.000397404
0.00149253
0.00148252
0.00209375
0.00266661
0.00449178
0.00453667
0.0068664
0.00873904
0.0128764
7.76236e-07
0.000201795
0.000771636
0.000507926
0.00159203
0.00122272
0.00146687
0.00224332
0.000770245
0.000323827
0.000399516
0.00150316
0.00148068
0.00209046
0.00267495
0.00447544
0.00455094
0.00678944
0.00870065
0.0122871
1.22785e-06
0.000201426
0.000771032
0.000506671
0.00158635
0.0012112
0.00146986
0.00220409
0.000790775
0.000339233
0.000399108
0.00151194
0.00147827
0.00208465
0.00268393
0.00445482
0.00456482
0.00670284
0.00864325
0.0117525
1.74762e-06
0.000200785
0.000770083
0.000504908
0.00158018
0.00119815
0.00147083
0.00215915
0.000813898
0.000357986
0.000397726
0.00151906
0.00147582
0.00207646
0.00269413
0.00442976
0.00457904
0.00660153
0.00856375
0.0112421
2.28524e-06
0.000199911
0.000768869
0.000502789
0.00157388
0.00118414
0.00147005
0.00211004
0.000839582
0.000378895
0.000396635
0.00152516
0.00147377
0.00206631
0.00270566
0.00440096
0.00459205
0.00649185
0.00845989
0.0107544
2.80231e-06
0.000198859
0.000767478
0.000500474
0.00156755
0.00116944
0.0014679
0.00205829
0.000867285
0.00040097
0.000396521
0.00153046
0.00147212
0.00205435
0.00271824
0.00436888
0.00460195
0.00637455
0.0083305
0.0102882
3.29138e-06
0.000197671
0.000765963
0.000498045
0.00156111
0.00115416
0.00146479
0.00200488
0.000896259
0.000423667
0.000397485
0.001535
0.00147075
0.00204067
0.00273127
0.0043341
0.00460683
0.00625085
0.00817561
0.00984213
3.76098e-06
0.00019636
0.000764341
0.000495522
0.00155445
0.00113832
0.001461
0.00195046
0.000925852
0.000446705
0.000399329
0.00153885
0.00146953
0.00202545
0.00274407
0.00429725
0.00460504
0.00612153
0.00799641
0.00941368
4.22097e-06
0.000194914
0.00076261
0.000492901
0.00154746
0.00112187
0.00145675
0.00189544
0.000955499
0.000469938
0.000401815
0.00154221
0.00146811
0.00200904
0.00275591
0.00425873
0.00459511
0.00598703
0.00779481
0.00899923
4.67969e-06
0.000193313
0.000760763
0.000490174
0.00154004
0.00110477
0.00145216
0.00184009
0.00098471
0.000493351
0.000404751
0.00154532
0.00146601
0.00199199
0.00276606
0.0042186
0.00457601
0.005847
0.00757349
0.00859538
5.14589e-06
0.000191527
0.000758789
0.000487334
0.00153211
0.00108702
0.00144725
0.00178464
0.00101306
0.00051705
0.000407865
0.00154846
0.00146277
0.00197473
0.0027739
0.0041767
0.0045469
0.00570043
0.00733597
0.00820042
5.63025e-06
0.000189526
0.000756679
0.000484372
0.00152359
0.00106866
0.001442
0.00172928
0.00104015
0.000541214
0.000410795
0.0015519
0.00145795
0.00195746
0.00277896
0.00413256
0.00450844
0.00554546
0.00708546
0.00781448
6.14627e-06
0.000187272
0.00075442
0.000481283
0.00151441
0.00104975
0.0014363
0.00167424
0.00106556
0.000566079
0.000413132
0.00155612
0.00145121
0.00194021
0.00278117
0.00408531
0.00446299
0.0053803
0.00682343
0.00743805
6.71067e-06
0.000184722
0.000751997
0.000478066
0.00150453
0.00103037
0.00143
0.00161982
0.00108884
0.000591945
0.000414378
0.00156128
0.00144232
0.00192277
0.00278087
0.00403364
0.00441014
0.00520401
0.00655026
0.00707188
7.34373e-06
0.000181828
0.00074939
0.000474727
0.00149386
0.00101063
0.00142291
0.00156632
0.00110954
0.00061916
0.000414081
0.00156754
0.00143128
0.00190458
0.00277873
0.00397565
0.00435051
0.00501749
0.00626575
0.00671656
8.06998e-06
0.000178535
0.000746572
0.000471279
0.00148234
0.000990639
0.00141476
0.00151416
0.00112711
0.000648044
0.000411918
0.0015748
0.00141835
0.00188466
0.00277586
0.00390934
0.00428385
0.00482349
0.00596843
0.00637143
8.91781e-06
0.000174787
0.000743506
0.000467751
0.00146985
0.000970549
0.00140525
0.00146377
0.00114106
0.000678828
0.000407644
0.00158281
0.00140421
0.00186143
0.00277376
0.0038337
0.00420872
0.0046259
0.00565702
0.00603434
9.91801e-06
0.000170524
0.000740141
0.000464181
0.0014563
0.00095054
0.00139401
0.00141559
0.00115093
0.000711686
0.000401167
0.00159105
0.00139003
0.00183292
0.00277368
0.00374868
0.00412239
0.0044293
0.00533278
0.00570168
1.11041e-05
0.000165687
0.000736412
0.000460623
0.00144152
0.000930855
0.00138068
0.00137004
0.00115628
0.000746714
0.000392498
0.00159849
0.00137749
0.0017972
0.00277502
0.00365554
0.00402095
0.00423768
0.00499996
0.00536816
1.25135e-05
0.000160219
0.000732231
0.000457158
0.00142532
0.000911769
0.00136485
0.00132745
0.00115683
0.00078384
0.000381965
0.00160382
0.00136841
0.00175247
0.00277683
0.00355722
0.00390008
0.00405239
0.00466468
0.00502828
1.41834e-05
0.000154068
0.000727476
0.000453888
0.00140751
0.000893573
0.00134617
0.00128811
0.00115239
0.000822713
0.000370404
0.00160537
0.00136439
0.00169786
0.00277686
0.00345771
0.00375671
0.00387173
0.00433453
0.00467829
1.61501e-05
0.000147205
0.000721989
0.000450939
0.00138785
0.000876552
0.0013243
0.00125225
0.00114283
0.000862702
0.000359089
0.00160109
0.0013667
0.00163343
0.0027716
0.0033615
0.00359042
0.00369139
0.00401725
0.00431792
1.84502e-05
0.000139618
0.000715571
0.000448471
0.0013661
0.000860914
0.00129904
0.00121986
0.0011283
0.000902946
0.000349438
0.00158927
0.00137557
0.00155984
0.00275687
0.0032726
0.00340327
0.00350474
0.00371936
0.00395126
2.11129e-05
0.00013132
0.000707962
0.000446663
0.00134204
0.000846806
0.00127029
0.00119075
0.00110938
0.000942238
0.000342654
0.00156896
0.00139084
0.00147876
0.00272833
0.0031933
0.0031996
0.00330439
0.00344427
0.00358657
2.41586e-05
0.000122362
0.000698852
0.000445681
0.00131553
0.000834323
0.00123803
0.0011645
0.00108689
0.000979255
0.000339509
0.0015392
0.0014105
0.0013929
0.00268184
0.00312402
0.00298613
0.00308378
0.00319057
0.0032348
2.75896e-05
0.000112833
0.0006879
0.000445639
0.00128647
0.000823478
0.00120251
0.00114041
0.00106181
0.00101286
0.000340595
0.00149928
0.00143336
0.00130565
0.00261403
0.00306319
0.00277133
0.00283906
0.00295293
0.00290693
3.13894e-05
0.000102878
0.000674734
0.000446597
0.00125484
0.000814115
0.00116417
0.00111753
0.00103509
0.00104205
0.000346123
0.00144923
0.00145714
0.00122046
0.00252282
0.00300728
0.00256412
0.00257028
0.00272246
0.00261167
3.55342e-05
9.26748e-05
0.00065901
0.000448536
0.00122074
0.000805843
0.00112366
0.00109524
0.00100754
0.00106612
0.000355827
0.00138933
0.00147921
0.00114055
0.0024077
0.00295119
0.00237262
0.0022815
0.00248762
0.00235301
3.99349e-05
8.24593e-05
0.000640439
0.000451278
0.00118443
0.000798085
0.00108179
0.00107237
0.000979675
0.00108468
0.000369405
0.00132005
0.00149648
0.00106891
0.00226989
0.00288834
0.00220284
0.00198053
0.00223673
0.00212847
4.44966e-05
7.2495e-05
0.000618759
0.000454527
0.00114633
0.000790155
0.00103935
0.0010489
0.000951524
0.00109725
0.000386336
0.00124219
0.00150572
0.00100787
0.00211213
0.00281138
0.00205718
0.00167788
0.00196175
0.00192845
4.91783e-05
6.30296e-05
0.000593825
0.000457812
0.00110705
0.000781294
0.000996933
0.00102479
0.00092269
0.00110331
0.000406839
0.0011566
0.00150364
0.00095911
0.00193872
0.00271361
0.0019335
0.00138556
0.00166172
0.00173766
5.36678e-05
5.43458e-05
0.000565676
0.000460407
0.0010673
0.000770919
0.000954975
0.00100016
0.00089284
0.00110223
0.000430645
0.0010646
0.0014866
0.000922909
0.00175603
0.00259096
0.00182678
0.00111392
0.00134225
0.00153846
5.75882e-05
4.67004e-05
0.00053459
0.00046137
0.00102767
0.000758781
0.000913348
0.000975487
0.000862322
0.00109283
0.000456707
0.00096862
0.00145155
0.00089724
0.00157137
0.0024429
0.00173068
0.000869618
0.00101315
0.00131645
6.08045e-05
4.02889e-05
0.000501042
0.00045963
0.000988548
0.000744972
0.000871453
0.000951063
0.000831811
0.00107405
0.000483476
0.000871795
0.00139673
0.000878427
0.00139082
0.00227059
0.00163874
0.000656198
0.000686327
0.00106603
6.31124e-05
3.52514e-05
0.000465661
0.000454148
0.000950057
0.000729991
0.000828589
0.000926546
0.000802243
0.00104527
0.000508804
0.000777335
0.00132171
0.00086163
0.00121928
0.00207682
0.00154413
0.000473841
0.000373235
0.000791635
6.43221e-05
3.16014e-05
0.000429158
0.000444109
0.000911964
0.000714613
0.000784252
0.000901047
0.000774899
0.00100647
0.000529222
0.00068805
0.00122872
0.000841897
0.00105982
0.00186628
0.00144032
0.000318815
8.27384e-05
0.000505449
6.42819e-05
2.91529e-05
0.000392375
0.000429028
0.00087349
0.000699668
0.00073855
0.000873048
0.000750652
0.000958824
0.000540415
0.00060442
0.00112201
0.000815872
0.000913929
0.00164405
0.00132312
0.000185824
-0.000181536
0.000222119
6.28835e-05
2.75733e-05
0.00035615
0.000408794
0.00083346
0.00068562
0.000691842
0.000840738
0.000729644
0.00090477
0.000539422
0.000525702
0.00100505
0.00078118
0.000782923
0.00141516
0.00119001
7.09606e-05
-0.000421275
-5.06445e-05
6.00486e-05
2.63984e-05
0.000321217
0.00038352
0.000790459
0.000672552
0.000645257
0.000802505
0.000711188
0.000847336
0.000525077
0.000449227
0.000879849
0.000736178
0.000667677
0.00118565
0.00103778
-2.8886e-05
-0.000636408
-0.000315438
5.57707e-05
2.49658e-05
0.000288158
0.000353606
0.000742926
0.000659191
0.000601034
0.000757636
0.000692817
0.00078986
0.000497665
0.000371336
0.000748228
0.000679427
0.000567742
0.000963144
0.00086456
-0.00012058
-0.000821692
-0.000576324
5.00642e-05
2.27063e-05
0.00025725
0.000322028
0.000689875
0.000643565
0.000561045
0.000706468
0.000670956
0.000734202
0.000459534
0.000289747
0.000610743
0.000609987
0.000480675
0.000755972
0.000674483
-0.000216638
-0.000973736
-0.000829182
4.29526e-05
1.9152e-05
0.000228382
0.000290253
0.000631092
0.00062311
0.000525588
0.000650872
0.000642718
0.000679866
0.00041425
0.000204474
0.000466712
0.000526544
0.000402365
0.00057075
0.000478678
-0.000328008
-0.00109918
-0.00106128
3.44956e-05
1.38959e-05
0.000201073
0.000259021
0.000567299
0.000595097
0.000494247
0.000593991
0.000606706
0.000625308
0.000364144
0.000117212
0.000316981
0.000426692
0.000328997
0.000408622
0.000287554
-0.000453508
-0.00121243
-0.00126272
2.47907e-05
6.63488e-06
0.000174449
0.000229182
0.000500372
0.000557378
0.000465029
0.000539122
0.000563054
0.000567674
0.000309777
3.01472e-05
0.000163589
0.000309187
0.000255258
0.000267346
0.000109331
-0.000583188
-0.00132534
-0.00143502
1.3904e-05
-2.77447e-06
0.000147416
0.000201235
0.000432817
0.000508779
0.000433719
0.000487867
0.000513989
0.000504551
0.000250167
-5.51049e-05
1.07779e-05
0.000175454
0.000173418
0.000144186
-5.27511e-05
-0.00070846
-0.00143813
-0.0015898
1.8011e-06
-1.43648e-05
0.000119089
0.000174995
0.000367406
0.000449214
0.000395518
0.000439747
0.000463806
0.000436505
0.000182562
-0.000139993
-0.000135284
2.95316e-05
7.76417e-05
3.35647e-05
-0.00019976
-0.00082361
-0.00154258
-0.00173828
-1.15718e-05
-2.80318e-05
8.87316e-05
0.000149648
0.000306113
0.000380101
0.000346413
0.000393308
0.000416173
0.000364989
0.000105276
-0.000227398
-0.000271893
-0.000120703
-3.37631e-05
-7.33223e-05
-0.000332849
-0.000930894
-0.00162942
-0.00187783
-2.63367e-05
-4.34798e-05
5.57138e-05
0.000123795
0.000250328
0.000305139
0.000283938
0.000343909
0.000373015
0.000294079
1.87302e-05
-0.00032143
-0.000403076
-0.000265316
-0.000154652
-0.000184302
-0.000455676
-0.00103525
-0.00169831
-0.0019958
-4.26912e-05
-6.04887e-05
1.99171e-05
9.52529e-05
0.00020068
0.00022877
0.000207696
0.00028502
0.000333285
0.000230637
-7.4663e-05
-0.000426634
-0.000532199
-0.00040271
-0.00027531
-0.000299148
-0.000575164
-0.00113951
-0.00176209
-0.00207891
-6.08658e-05
-7.81496e-05
-1.85247e-05
6.21593e-05
0.000156914
0.000155229
0.000118685
0.000211606
0.000293541
0.000179055
-0.000168698
-0.00054561
-0.000664841
-0.00053513
-0.000388627
-0.000411067
-0.00069404
-0.00124785
-0.00183437
-0.00213442
-8.1141e-05
-9.66939e-05
-5.9113e-05
2.30744e-05
0.000117456
8.7768e-05
2.01923e-05
0.000120408
0.000247794
0.000139395
-0.000253424
-0.000674248
-0.000811368
-0.000666089
-0.000492269
-0.000512611
-0.000806998
-0.0013594
-0.00192769
-0.00218873
-0.000103817
-0.000116109
-0.000100738
-2.30494e-05
7.93268e-05
2.8709e-05
-8.22825e-05
1.04362e-05
0.000188511
0.000109281
-0.000320586
-0.000804472
-0.000975569
-0.000807538
-0.000588263
-0.000597162
-0.000909786
-0.00146647
-0.00204086
-0.00226965
-0.000129179
-0.00013652
-0.000142185
-7.65759e-05
3.87904e-05
-2.11568e-05
-0.000181993
-0.000116634
0.000108258
8.34108e-05
-0.000365566
-0.000925462
-0.00115187
-0.000972817
-0.000686791
-0.000659225
-0.000993735
-0.0015637
-0.00215793
-0.00239545
-0.000157453
-0.00015831
-0.000182111
-0.000136927
-8.10512e-06
-6.26297e-05
-0.000272776
-0.000256902
1.9991e-06
5.24038e-05
-0.000388279
-0.00102504
-0.00133283
-0.00116426
-0.000807487
-0.000706041
-0.00104577
-0.0016462
-0.00226461
-0.00255254
-0.000188674
-0.000182131
-0.000219654
-0.000202856
-6.44507e-05
-9.84331e-05
-0.00035034
-0.000403378
-0.000131949
5.49498e-06
-0.000392742
-0.00109298
-0.00150703
-0.00137756
-0.000964269
-0.000756131
-0.00105906
-0.00170152
-0.00235395
-0.00271056
-0.000222722
-0.000208757
-0.000254667
-0.000271872
-0.000132075
-0.000133361
-0.0004122
-0.000547067
-0.000291229
-6.7236e-05
-0.000387753
-0.00112512
-0.00165821
-0.00160464
-0.00116065
-0.000835172
-0.00104631
-0.00171064
-0.00242132
-0.00285042
-0.000259332
-0.000239015
-0.000287408
-0.000340761
-0.000211492
-0.00017349
-0.000458567
-0.000678406
-0.000470385
-0.000173703
-0.000386573
-0.00112346
-0.00177231
-0.00183182
-0.00139308
-0.000960507
-0.00103345
-0.00166872
-0.00245167
-0.00296469
-0.000298033
-0.000273632
-0.000318891
-0.000406372
-0.000301325
-0.000224576
-0.000491982
-0.000789984
-0.00065977
-0.000317185
-0.000404147
-0.00109412
-0.00184094
-0.00203966
-0.00165009
-0.00113952
-0.00105417
-0.00159276
-0.00242521
-0.00304438
-0.000338405
-0.000312947
-0.000350729
-0.000466504
-0.000399004
-0.000290833
-0.000518487
-0.000877595
-0.000846412
-0.000494155
-0.000454194
-0.00105057
-0.00186058
-0.00221171
-0.00191608
-0.0013673
-0.00113252
-0.00151608
-0.00233938
-0.00307143
-0.000379971
-0.00035689
-0.00038507
-0.000520348
-0.000500038
-0.000374012
-0.000546194
-0.000940826
-0.00101771
-0.000696777
-0.000546231
-0.00101347
-0.00183488
-0.00233343
-0.00217212
-0.00163003
-0.00127617
-0.00148053
-0.00221494
-0.00302806
-0.000422371
-0.000405103
-0.000423885
-0.000568303
-0.000598836
-0.000473113
-0.00058358
-0.00098237
-0.001164
-0.000912275
-0.000681947
-0.00100211
-0.00177657
-0.00239432
-0.00239884
-0.00191326
-0.00147578
-0.00151164
-0.00209335
-0.00291824
-0.000465495
-0.000456822
-0.000468586
-0.00061174
-0.000690662
-0.000584915
-0.000637212
-0.00100923
-0.00127963
-0.00112433
-0.00085569
-0.00102961
-0.00170934
-0.0023972
-0.00257426
-0.00219857
-0.00171903
-0.00161245
-0.00201795
-0.00276944
-0.000509404
-0.000510969
-0.000519658
-0.000653202
-0.000772822
-0.000704076
-0.000710354
-0.001032
-0.00136422
-0.00131783
-0.00105749
-0.00110319
-0.00165634
-0.00235544
-0.00268225
-0.00246015
-0.00199319
-0.00177198
-0.00200944
-0.00262839
-0.000554273
-0.000566428
-0.000576656
-0.000695776
-0.000844787
-0.000823393
-0.000802476
-0.0010613
-0.00142153
-0.00148198
-0.00127089
-0.00122221
-0.00163405
-0.00229213
-0.00272581
-0.00267049
-0.00227682
-0.00197954
-0.00206899
-0.00253431
-0.00060034
-0.000622227
-0.000638495
-0.00074227
-0.000907745
-0.000936111
-0.000909516
-0.00110507
-0.00145978
-0.00161191
-0.00147683
-0.00137821
-0.0016539
-0.00223047
-0.00271889
-0.00281331
-0.00253879
-0.00222078
-0.00218811
-0.00250462
-0.000647813
-0.000677771
-0.000703596
-0.000794232
-0.000963973
-0.00103804
-0.00102545
-0.00116701
-0.00149089
-0.00170923
-0.00166079
-0.00155678
-0.00171916
-0.00218903
-0.00268254
-0.00289243
-0.00275206
-0.00247069
-0.00235523
-0.00254014
-0.00069674
-0.000732805
-0.000770045
-0.000851741
-0.00101674
-0.00112784
-0.00114269
-0.00124618
-0.00152557
-0.00177952
-0.00181459
-0.00173878
-0.00182267
-0.00218145
-0.00263899
-0.00292123
-0.00290488
-0.00270027
-0.00255172
-0.00263165
-0.000746985
-0.000787243
-0.000836019
-0.000913739
-0.00106923
-0.00120638
-0.00125437
-0.00133798
-0.00157052
-0.00183211
-0.00193663
-0.00190831
-0.00195183
-0.00221238
-0.00260667
-0.00291874
-0.00300199
-0.00288905
-0.00275265
-0.00276388
-0.000798195
-0.000841023
-0.00090018
-0.000978532
-0.00112349
-0.00127574
-0.00135616
-0.00143633
-0.00162813
-0.00187767
-0.00203094
-0.00205599
-0.00209047
-0.00227614
-0.00259817
-0.00290535
-0.00305582
-0.00303008
-0.00293592
-0.00291677
-0.000849789
-0.000894042
-0.000961747
-0.00104419
-0.00118005
-0.00133844
-0.00144651
-0.00153472
-0.00169672
-0.00192412
-0.00210404
-0.00217814
-0.00222451
-0.00236229
-0.00261745
-0.00289693
-0.00308254
-0.00312816
-0.00308833
-0.00306977
-0.000901028
-0.000946056
-0.00102027
-0.0011087
-0.00123821
-0.0013969
-0.00152584
-0.00162791
-0.00177193
-0.00197512
-0.00216394
-0.00227622
-0.0023451
-0.00245882
-0.0026606
-0.00290291
-0.00309827
-0.00319358
-0.0032063
-0.00320742
-0.000951057
-0.000996583
-0.00107544
-0.00117039
-0.0012966
-0.00145266
-0.00159548
-0.00171272
-0.00184893
-0.00203093
-0.0022174
-0.00235483
-0.00244804
-0.00255496
-0.00271965
-0.00292562
-0.00311437
-0.00323813
-0.00329383
-0.00332202
-0.000998926
-0.00104492
-0.00112695
-0.00122793
-0.00135343
-0.00150617
-0.0016569
-0.00178765
-0.00192329
-0.0020897
-0.00226826
-0.00241909
-0.00253301
-0.00264325
-0.00278601
-0.00296213
-0.00313671
-0.00327256
-0.00335804
-0.00341244
-0.00104361
-0.00109015
-0.00117431
-0.00128031
-0.00140687
-0.00155691
-0.00171148
-0.00185259
-0.00199139
-0.00214825
-0.00231778
-0.00247368
-0.00260248
-0.0027198
-0.00285186
-0.00300663
-0.00316615
-0.00330396
-0.00340684
-0.00348204
-0.00108401
-0.00113117
-0.00121678
-0.00132671
-0.00145526
-0.0016036
-0.00175982
-0.00190812
-0.00205109
-0.00220301
-0.00236506
-0.00252147
-0.00265938
-0.00278389
-0.00291185
-0.00305288
-0.00319963
-0.00333494
-0.00344669
-0.00353585
-0.00111896
-0.00116678
-0.00125339
-0.00136616
-0.00149689
-0.00164436
-0.00180104
-0.00195426
-0.00210154
-0.00225135
-0.00240762
-0.00256241
-0.0027055
-0.00283632
-0.00296393
-0.00309641
-0.00323262
-0.00336333
-0.00347923
-0.00357789
-0.00114734
-0.00119577
-0.00128307
-0.00139777
-0.00153035
-0.00167733
-0.00183355
-0.00198944
-0.00214023
-0.00228976
-0.00244214
-0.0025944
-0.00273978
-0.0028754
-0.00300473
-0.00313301
-0.00326148
-0.00338615
-0.00350142
-0.00360452
-0.00116924
-0.0012197
-0.0013086
-0.00142549
-0.00156043
-0.00170823
-0.00186436
-0.00202158
-0.00217489
-0.00232543
-0.00247619
-0.00262636
-0.0027718
-0.0029096
-0.00304077
-0.00316833
-0.00329364
-0.00341488
-0.00352862
-0.00363267
0.0168454
0.00993356
0.000912581
-0.00562933
-0.00759125
-0.00705242
-0.00650943
-0.00647676
-0.00665443
-0.00679218
-0.00680914
-0.00674828
-0.00667794
-0.00667186
-0.00673024
-0.00681253
-0.00696067
-0.00712885
-0.00721683
-0.00733146
-0.00756237
-0.00776655
-0.00786879
-0.00798602
-0.00818173
-0.00839083
-0.00855245
-0.00868804
-0.00886985
-0.00910741
-0.00930734
-0.00943545
-0.00959553
-0.00982148
-0.0100082
-0.0101406
-0.0103051
-0.010488
-0.0106308
-0.0107623
-0.0109142
-0.0110656
-0.0112081
-0.011352
-0.0114975
-0.0116438
-0.0117917
-0.0119427
-0.012101
-0.0122647
-0.0124268
-0.0125909
-0.0127635
-0.0129423
-0.0131224
-0.0133066
-0.0134968
-0.0136927
-0.013892
-0.0140965
-0.0143056
-0.0145205
-0.0147397
-0.0149647
-0.0151945
-0.0154299
-0.0156704
-0.0159162
-0.0161679
-0.0164241
-0.0166872
-0.0169542
-0.0172291
-0.0175072
-0.0177937
-0.0180837
-0.0183809
-0.0186837
-0.0189911
-0.0193071
-0.0196249
-0.0199537
-0.0202836
-0.0206235
-0.020968
-0.0213175
-0.0216777
-0.0220379
-0.0224115
-0.0227868
-0.0231689
-0.0235639
-0.0239518
-0.024364
-0.0247661
-0.0251736
-0.0256142
-0.0260043
-0.0264114
-0.0268653
0.0160185
0.00978641
0.000998959
-0.00548834
-0.00750429
-0.00700836
-0.00648222
-0.00645945
-0.00664299
-0.00678393
-0.00680253
-0.00674252
-0.00667259
-0.00666685
-0.00672568
-0.00680834
-0.0069569
-0.00712563
-0.00721381
-0.00732848
-0.00755977
-0.00776436
-0.0078667
-0.00798396
-0.00817985
-0.00838919
-0.00855097
-0.00868662
-0.00886848
-0.0091062
-0.00930634
-0.0094345
-0.00959458
-0.00982067
-0.0100076
-0.01014
-0.0103046
-0.0104876
-0.0106304
-0.0107619
-0.0109139
-0.0110653
-0.0112079
-0.0113518
-0.0114974
-0.0116437
-0.0117916
-0.0119426
-0.012101
-0.0122646
-0.0124268
-0.0125909
-0.0127634
-0.0129423
-0.0131224
-0.0133065
-0.0134968
-0.0136927
-0.013892
-0.0140965
-0.0143056
-0.0145205
-0.0147397
-0.0149647
-0.0151945
-0.0154299
-0.0156704
-0.0159162
-0.0161679
-0.0164241
-0.0166872
-0.0169542
-0.0172291
-0.0175073
-0.0177937
-0.0180837
-0.0183809
-0.0186837
-0.0189911
-0.0193071
-0.0196249
-0.0199537
-0.0202836
-0.0206235
-0.020968
-0.0213175
-0.0216777
-0.0220379
-0.0224115
-0.0227868
-0.0231689
-0.0235639
-0.0239518
-0.024364
-0.0247661
-0.0251736
-0.0256142
-0.0260043
-0.0264114
-0.0268653
0.0152683
0.00966293
0.00118443
-0.00522536
-0.00735965
-0.0069562
-0.00645476
-0.00643663
-0.00662469
-0.00677051
-0.006793
-0.00673562
-0.00666718
-0.00666216
-0.00672137
-0.00680422
-0.00695318
-0.0071225
-0.00721091
-0.00732566
-0.00755734
-0.00776229
-0.0078647
-0.00798204
-0.00817812
-0.00838766
-0.00854957
-0.00868527
-0.0088672
-0.0091051
-0.00930541
-0.00943357
-0.00959367
-0.00981994
-0.010007
-0.0101394
-0.010304
-0.0104872
-0.0106301
-0.0107616
-0.0109136
-0.0110651
-0.0112077
-0.0113516
-0.0114972
-0.0116435
-0.0117915
-0.0119425
-0.0121009
-0.0122646
-0.0124267
-0.0125908
-0.0127634
-0.0129422
-0.0131224
-0.0133065
-0.0134968
-0.0136927
-0.013892
-0.0140965
-0.0143056
-0.0145205
-0.0147397
-0.0149647
-0.0151945
-0.0154299
-0.0156704
-0.0159162
-0.0161679
-0.0164241
-0.0166872
-0.0169542
-0.0172291
-0.0175073
-0.0177937
-0.0180837
-0.0183809
-0.0186837
-0.0189911
-0.0193071
-0.0196249
-0.0199537
-0.0202836
-0.0206235
-0.020968
-0.0213175
-0.0216777
-0.0220379
-0.0224115
-0.0227868
-0.0231689
-0.0235639
-0.0239518
-0.024364
-0.0247661
-0.0251736
-0.0256142
-0.0260043
-0.0264114
-0.0268653
0.0145572
0.00953558
0.00141133
-0.00489815
-0.0071653
-0.00688571
-0.00641591
-0.00640083
-0.00659388
-0.00674687
-0.00677624
-0.00672452
-0.00665981
-0.00665666
-0.00671651
-0.00679936
-0.00694848
-0.00711845
-0.00720746
-0.00732245
-0.00755432
-0.00775957
-0.0078623
-0.00797986
-0.00817603
-0.00838567
-0.00854779
-0.00868368
-0.0088657
-0.00910372
-0.00930416
-0.00943237
-0.00959254
-0.00981897
-0.0100061
-0.0101386
-0.0103033
-0.0104866
-0.0106295
-0.0107611
-0.0109132
-0.0110647
-0.0112074
-0.0113514
-0.011497
-0.0116433
-0.0117913
-0.0119424
-0.0121008
-0.0122645
-0.0124266
-0.0125907
-0.0127633
-0.0129422
-0.0131224
-0.0133065
-0.0134968
-0.0136926
-0.013892
-0.0140964
-0.0143056
-0.0145205
-0.0147397
-0.0149647
-0.0151945
-0.0154299
-0.0156704
-0.0159162
-0.0161679
-0.0164241
-0.0166872
-0.0169542
-0.0172291
-0.0175073
-0.0177937
-0.0180837
-0.0183809
-0.0186837
-0.0189911
-0.0193071
-0.0196249
-0.0199537
-0.0202836
-0.0206235
-0.020968
-0.0213175
-0.0216777
-0.0220379
-0.0224115
-0.0227868
-0.0231689
-0.0235639
-0.0239518
-0.024364
-0.0247661
-0.0251736
-0.0256142
-0.0260043
-0.0264115
-0.0268654
0.0138467
0.00937629
0.0016398
-0.0045529
-0.00695022
-0.00680611
-0.00637137
-0.00635558
-0.00655132
-0.00671201
-0.00675042
-0.00670723
-0.00664893
-0.00664935
-0.00671058
-0.00679348
-0.0069423
-0.00711284
-0.0072031
-0.00731863
-0.00755021
-0.00775561
-0.0078592
-0.00797731
-0.00817327
-0.00838271
-0.00854523
-0.00868164
-0.00886376
-0.00910168
-0.00930223
-0.00943067
-0.00959098
-0.00981747
-0.0100047
-0.0101372
-0.0103021
-0.0104855
-0.0106286
-0.0107602
-0.0109125
-0.0110642
-0.0112068
-0.0113509
-0.0114966
-0.011643
-0.0117911
-0.0119422
-0.0121006
-0.0122643
-0.0124265
-0.0125906
-0.0127632
-0.0129421
-0.0131223
-0.0133064
-0.0134967
-0.0136926
-0.013892
-0.0140964
-0.0143056
-0.0145205
-0.0147397
-0.0149647
-0.0151945
-0.0154299
-0.0156704
-0.0159162
-0.0161679
-0.0164241
-0.0166872
-0.0169542
-0.0172291
-0.0175073
-0.0177937
-0.0180837
-0.0183809
-0.0186837
-0.0189911
-0.0193071
-0.0196249
-0.0199537
-0.0202836
-0.0206235
-0.020968
-0.0213175
-0.0216777
-0.0220379
-0.0224115
-0.0227868
-0.0231689
-0.0235639
-0.0239518
-0.024364
-0.0247661
-0.0251736
-0.0256142
-0.0260044
-0.0264115
-0.0268655
0.0131314
0.00917913
0.00185923
-0.00420186
-0.0067228
-0.00672162
-0.00632655
-0.00630731
-0.00650267
-0.00666999
-0.00671781
-0.00668461
-0.00663452
-0.00663988
-0.00670333
-0.00678654
-0.00693465
-0.0071056
-0.00719779
-0.00731416
-0.00754481
-0.00775011
-0.00785528
-0.00797445
-0.0081698
-0.00837853
-0.00854161
-0.00867901
-0.00886124
-0.0090987
-0.00929931
-0.00942831
-0.00958883
-0.00981517
-0.0100024
-0.0101352
-0.0103003
-0.0104838
-0.010627
-0.0107589
-0.0109114
-0.0110632
-0.011206
-0.0113501
-0.0114959
-0.0116424
-0.0117906
-0.0119418
-0.0121002
-0.012264
-0.0124262
-0.0125904
-0.0127631
-0.0129419
-0.0131222
-0.0133063
-0.0134966
-0.0136925
-0.0138919
-0.0140964
-0.0143056
-0.0145204
-0.0147397
-0.0149647
-0.0151945
-0.0154299
-0.0156704
-0.0159162
-0.0161679
-0.0164241
-0.0166872
-0.0169542
-0.0172291
-0.0175073
-0.0177937
-0.0180837
-0.0183809
-0.0186837
-0.0189911
-0.0193071
-0.0196249
-0.0199537
-0.0202836
-0.0206235
-0.020968
-0.0213175
-0.0216777
-0.0220379
-0.0224115
-0.0227868
-0.0231689
-0.023564
-0.0239518
-0.024364
-0.0247661
-0.0251736
-0.0256142
-0.0260044
-0.0264116
-0.0268657
0.0124181
0.00894875
0.00206763
-0.00384751
-0.00648356
-0.00663187
-0.00628244
-0.0062584
-0.00645081
-0.00662383
-0.00668114
-0.00665848
-0.00661748
-0.00662856
-0.0066948
-0.00677864
-0.00692589
-0.00709715
-0.00719174
-0.00730908
-0.00753815
-0.0077431
-0.00785056
-0.00797132
-0.00816571
-0.0083732
-0.00853692
-0.00867576
-0.00885805
-0.00909459
-0.00929523
-0.00942519
-0.00958601
-0.0098119
-0.00999908
-0.0101324
-0.0102977
-0.0104813
-0.0106246
-0.0107569
-0.0109097
-0.0110616
-0.0112046
-0.0113489
-0.0114948
-0.0116415
-0.0117898
-0.0119411
-0.0120996
-0.0122635
-0.0124258
-0.0125901
-0.0127628
-0.0129417
-0.0131219
-0.0133061
-0.0134965
-0.0136924
-0.0138918
-0.0140963
-0.0143055
-0.0145204
-0.0147397
-0.0149647
-0.0151944
-0.0154299
-0.0156704
-0.0159162
-0.0161679
-0.0164241
-0.0166872
-0.0169542
-0.0172291
-0.0175073
-0.0177937
-0.0180837
-0.0183809
-0.0186837
-0.0189911
-0.0193071
-0.0196249
-0.0199537
-0.0202836
-0.0206235
-0.020968
-0.0213175
-0.0216777
-0.0220379
-0.0224115
-0.0227868
-0.0231689
-0.023564
-0.0239518
-0.024364
-0.0247662
-0.0251736
-0.0256142
-0.0260044
-0.0264118
-0.0268659
0.0117159
0.00868898
0.00226045
-0.003493
-0.00623223
-0.00653498
-0.00623845
-0.00620937
-0.00639658
-0.00657463
-0.00664166
-0.00662998
-0.00659852
-0.00661575
-0.00668515
-0.00676991
-0.00691634
-0.00708794
-0.00718515
-0.00730347
-0.00753051
-0.00773494
-0.00784512
-0.00796787
-0.00816114
-0.00836701
-0.00853142
-0.00867199
-0.00885426
-0.00908939
-0.00928998
-0.00942131
-0.00958254
-0.00980766
-0.0099947
-0.0101287
-0.0102943
-0.0104777
-0.0106214
-0.0107542
-0.0109073
-0.0110594
-0.0112027
-0.0113472
-0.0114933
-0.0116401
-0.0117887
-0.0119402
-0.0120988
-0.0122627
-0.0124251
-0.0125895
-0.0127623
-0.0129413
-0.0131216
-0.0133059
-0.0134962
-0.0136922
-0.0138917
-0.0140962
-0.0143054
-0.0145203
-0.0147396
-0.0149646
-0.0151944
-0.0154299
-0.0156704
-0.0159162
-0.0161679
-0.0164241
-0.0166872
-0.0169542
-0.0172291
-0.0175073
-0.0177937
-0.0180837
-0.0183809
-0.0186837
-0.0189911
-0.0193071
-0.0196249
-0.0199537
-0.0202836
-0.0206235
-0.020968
-0.0213175
-0.0216777
-0.0220379
-0.0224115
-0.0227868
-0.0231689
-0.023564
-0.0239518
-0.024364
-0.0247662
-0.0251737
-0.0256142
-0.0260045
-0.026412
-0.0268661
0.0110322
0.00840084
0.00243171
-0.00314101
-0.00596764
-0.00642844
-0.00619371
-0.00616081
-0.00634066
-0.00652289
-0.00659991
-0.00659961
-0.00657805
-0.00660171
-0.00667451
-0.00676045
-0.00690622
-0.00707816
-0.00717809
-0.00729743
-0.00752222
-0.00772597
-0.0078391
-0.00796409
-0.00815617
-0.00836026
-0.00852541
-0.0086679
-0.00885
-0.00908333
-0.00928376
-0.00941676
-0.0095785
-0.00980258
-0.0099894
-0.0101242
-0.01029
-0.0104733
-0.0106173
-0.0107507
-0.0109042
-0.0110566
-0.0112001
-0.011345
-0.0114913
-0.0116384
-0.0117872
-0.0119389
-0.0120976
-0.0122616
-0.0124242
-0.0125888
-0.0127617
-0.0129407
-0.0131211
-0.0133054
-0.0134959
-0.0136919
-0.0138914
-0.014096
-0.0143052
-0.0145202
-0.0147395
-0.0149645
-0.0151943
-0.0154298
-0.0156704
-0.0159162
-0.0161678
-0.0164241
-0.0166872
-0.0169542
-0.0172291
-0.0175073
-0.0177937
-0.0180837
-0.0183809
-0.0186837
-0.0189911
-0.0193071
-0.0196249
-0.0199537
-0.0202836
-0.0206235
-0.020968
-0.0213175
-0.0216777
-0.0220379
-0.0224115
-0.0227868
-0.0231689
-0.023564
-0.0239518
-0.024364
-0.0247662
-0.0251737
-0.0256142
-0.0260045
-0.0264122
-0.0268665
0.0103718
0.00808593
0.00257787
-0.00279278
-0.00568884
-0.00631035
-0.00614794
-0.00611391
-0.0062841
-0.00646907
-0.00655611
-0.00656761
-0.00655626
-0.00658656
-0.00666298
-0.00675033
-0.00689555
-0.00706782
-0.00717054