/*--------------------------------*- C++ -*----------------------------------*\
| =========                 |                                                 |
| \\      /  F ield         | OpenFOAM: The Open Source CFD Toolbox           |
|  \\    /   O peration     | Version:  2106                                  |
|   \\  /    A nd           | Website:  www.openfoam.com                      |
|    \\/     M anipulation  |                                                 |
\*---------------------------------------------------------------------------*/
FoamFile
{
    version     2.0;
    format      ascii;
    arch        "LSB;label=32;scalar=64";
    class       surfaceScalarField;
    location    "0.285";
    object      phi;
}
// * * * * * * * * * * * * * * * * * * * * * * * * * * * * * * * * * * * * * //

dimensions      [0 3 -1 0 0 0 0];

oriented        oriented;

internalField   nonuniform List<scalar> 
19000
(
1.17021e-06
-6.35418e-08
1.17265e-06
-2.42341e-08
1.17551e-06
6.81542e-08
1.17317e-06
-1.43407e-07
1.16302e-06
2.63512e-07
1.15433e-06
-4.81875e-07
1.20598e-06
5.09536e-07
1.13709e-06
-4.56659e-07
1.15479e-06
3.44565e-07
1.13459e-06
3.84201e-07
1.14209e-06
-6.68736e-08
1.1627e-06
8.95447e-08
1.15588e-06
-8.59357e-08
1.15793e-06
6.96416e-08
1.15797e-06
-9.45591e-08
1.14958e-06
7.37758e-08
1.15609e-06
-8.75693e-08
1.14395e-06
2.13294e-08
1.14288e-06
-4.6179e-08
8.05222e-09
1.11783e-06
1.22544e-06
-6.47205e-08
1.22921e-06
-2.80005e-08
1.23072e-06
6.66416e-08
1.22939e-06
-1.42074e-07
1.21696e-06
2.75939e-07
1.20902e-06
-4.73936e-07
1.25709e-06
4.61467e-07
1.19184e-06
-3.91407e-07
1.20204e-06
3.34361e-07
1.19646e-06
3.89779e-07
1.19617e-06
-6.65844e-08
1.22395e-06
6.1773e-08
1.21117e-06
-7.31565e-08
1.22204e-06
5.87645e-08
1.21094e-06
-8.34514e-08
1.21794e-06
6.67761e-08
1.20574e-06
-7.53761e-08
1.21598e-06
1.10923e-08
1.18817e-06
-1.83725e-08
-3.94974e-09
1.20018e-06
1.28224e-06
-6.41742e-08
1.2886e-06
-3.43638e-08
1.28801e-06
6.72324e-08
1.28825e-06
-1.42315e-07
1.2748e-06
2.89387e-07
1.26743e-06
-4.66566e-07
1.30948e-06
4.1942e-07
1.25529e-06
-3.37222e-07
1.25184e-06
3.3782e-07
1.26303e-06
3.78583e-07
1.25375e-06
-5.72995e-08
1.28378e-06
3.174e-08
1.26911e-06
-5.84855e-08
1.28109e-06
4.67795e-08
1.26777e-06
-7.01272e-08
1.27558e-06
5.89616e-08
1.26201e-06
-6.18049e-08
1.26922e-06
3.88892e-09
1.25023e-06
6.08994e-10
1.27865e-10
1.24616e-06
1.34127e-06
-6.13421e-08
1.35004e-06
-4.31323e-08
1.34749e-06
6.97801e-08
1.34935e-06
-1.4417e-07
1.33675e-06
3.01983e-07
1.33061e-06
-4.60423e-07
1.3646e-06
3.85428e-07
1.32553e-06
-2.9815e-07
1.31049e-06
3.52862e-07
1.33038e-06
3.58686e-07
1.31825e-06
-4.51709e-08
1.34136e-06
8.63229e-09
1.3325e-06
-4.96221e-08
1.33904e-06
4.02347e-08
1.32977e-06
-6.0854e-08
1.33426e-06
5.44727e-08
1.32389e-06
-5.14364e-08
1.32756e-06
2.18322e-10
1.31461e-06
1.3556e-08
8.8034e-09
1.30594e-06
1.40354e-06
-5.65236e-08
1.41323e-06
-5.28259e-08
1.40969e-06
7.33209e-08
1.41233e-06
-1.46808e-07
1.40265e-06
3.11658e-07
1.39768e-06
-4.55448e-07
1.42312e-06
3.5998e-07
1.39803e-06
-2.73054e-07
1.37963e-06
3.71256e-07
1.39903e-06
3.39292e-07
1.38911e-06
-3.52521e-08
1.40265e-06
-4.91085e-09
1.39968e-06
-4.66523e-08
1.40275e-06
3.71643e-08
1.39577e-06
-5.38695e-08
1.39961e-06
5.06294e-08
1.39056e-06
-4.23875e-08
1.39311e-06
-2.32418e-09
1.38247e-06
2.41942e-08
1.85591e-08
1.37271e-06
1.46996e-06
-5.08118e-08
1.47864e-06
-6.1501e-08
1.47528e-06
7.66819e-08
1.47764e-06
-1.4917e-07
1.47203e-06
3.17271e-07
1.46755e-06
-4.5097e-07
1.48529e-06
3.42242e-07
1.47036e-06
-2.58127e-07
1.45589e-06
3.85722e-07
1.47067e-06
3.24511e-07
1.46351e-06
-2.80907e-08
1.46991e-06
-1.13126e-08
1.46914e-06
-4.58809e-08
1.47154e-06
3.47664e-08
1.46522e-06
-4.75532e-08
1.46926e-06
4.65929e-08
1.46104e-06
-3.41621e-08
1.46249e-06
-3.77917e-09
1.45359e-06
3.30905e-08
2.90186e-08
1.44313e-06
1.54091e-06
-4.55039e-08
1.54719e-06
-6.77779e-08
1.54471e-06
7.9155e-08
1.54617e-06
-1.50623e-07
1.54442e-06
3.19017e-07
1.53967e-06
-4.46219e-07
1.55128e-06
3.30634e-07
1.54255e-06
-2.49405e-07
1.53477e-06
3.9351e-07
1.54538e-06
3.13902e-07
1.53959e-06
-2.23099e-08
1.54188e-06
-1.35976e-08
1.54084e-06
-4.48364e-08
1.54324e-06
3.23666e-08
1.5374e-06
-4.17194e-08
1.5414e-06
4.2593e-08
1.53399e-06
-2.67504e-08
1.53425e-06
-4.03737e-09
1.52689e-06
4.04478e-08
3.982e-08
1.51609e-06
1.61607e-06
-4.14405e-08
1.61964e-06
-7.13514e-08
1.6181e-06
8.06967e-08
1.61859e-06
-1.5112e-07
1.61969e-06
3.17917e-07
1.61418e-06
-4.40702e-07
1.62145e-06
3.23362e-07
1.61589e-06
-2.43843e-07
1.61406e-06
3.9534e-07
1.62245e-06
3.05513e-07
1.61721e-06
-1.70736e-08
1.61725e-06
-1.36343e-08
1.61529e-06
-4.2875e-08
1.6174e-06
3.0248e-08
1.61206e-06
-3.63709e-08
1.61579e-06
3.88567e-08
1.60918e-06
-2.01416e-08
1.60827e-06
-3.12931e-09
1.60231e-06
4.64162e-08
5.06467e-08
1.59148e-06
1.69489e-06
-3.8759e-08
1.69633e-06
-7.27838e-08
1.69538e-06
8.1642e-08
1.69517e-06
-1.50913e-07
1.69804e-06
3.15053e-07
1.69161e-06
-4.34271e-07
1.69617e-06
3.188e-07
1.69176e-06
-2.39439e-07
1.69407e-06
3.93035e-07
1.70175e-06
2.97831e-07
1.69703e-06
-1.23507e-08
1.69576e-06
-1.23661e-08
1.69307e-06
-4.01814e-08
1.69462e-06
2.86931e-08
1.68969e-06
-3.14361e-08
1.69292e-06
3.56237e-08
1.68712e-06
-1.43447e-08
1.68511e-06
-1.11259e-09
1.68036e-06
5.11643e-08
6.12093e-08
1.6698e-06
1.77707e-06
-3.71091e-08
1.77723e-06
-7.29412e-08
1.77653e-06
8.23368e-08
1.77587e-06
-1.50252e-07
1.77975e-06
3.11174e-07
1.77249e-06
-4.27009e-07
1.77561e-06
3.15686e-07
1.77119e-06
-2.35025e-07
1.77612e-06
3.88104e-07
1.78376e-06
2.9019e-07
1.77976e-06
-8.3506e-09
1.77765e-06
-1.02569e-08
1.77461e-06
-3.71398e-08
1.77547e-06
2.78396e-08
1.77093e-06
-2.69e-08
1.77343e-06
3.31259e-08
1.7684e-06
-9.32098e-09
1.7654e-06
1.89275e-09
1.76157e-06
5.49907e-08
7.11884e-08
1.75159e-06
1.86265e-06
-3.60147e-08
1.86226e-06
-7.25447e-08
1.86162e-06
8.29743e-08
1.86065e-06
-1.4928e-07
1.86513e-06
3.06696e-07
1.8572e-06
-4.19083e-07
1.85975e-06
3.13139e-07
1.85473e-06
-2.30004e-07
1.86141e-06
3.81422e-07
1.86908e-06
2.82516e-07
1.86592e-06
-5.1879e-09
1.86316e-06
-7.49656e-09
1.86014e-06
-3.41242e-08
1.86025e-06
2.7733e-08
1.85617e-06
-2.28199e-08
1.85781e-06
3.1481e-08
1.85344e-06
-4.94828e-09
1.84965e-06
5.68259e-09
1.84634e-06
5.83027e-08
8.02594e-08
1.83727e-06
1.95193e-06
-3.51063e-08
1.95141e-06
-7.20223e-08
1.95077e-06
8.36177e-08
1.94955e-06
-1.48068e-07
1.9544e-06
3.01847e-07
1.94594e-06
-4.10621e-07
1.94851e-06
3.1057e-07
1.94264e-06
-2.24136e-07
1.95065e-06
3.73409e-07
1.95816e-06
2.75011e-07
1.95583e-06
-2.85682e-09
1.95244e-06
-4.10507e-09
1.94975e-06
-3.14405e-08
1.94913e-06
2.8355e-08
1.94558e-06
-1.9264e-08
1.9464e-06
3.06519e-08
1.94248e-06
-1.02211e-09
1.93819e-06
9.96752e-09
1.93499e-06
6.15101e-08
8.81722e-08
1.92707e-06
2.04526e-06
-3.41732e-08
2.0448e-06
-7.15685e-08
2.04415e-06
8.4273e-08
2.04275e-06
-1.46672e-07
2.04783e-06
2.96766e-07
2.03888e-06
-4.01668e-07
2.04186e-06
3.07585e-07
2.0351e-06
-2.17372e-07
2.04426e-06
3.6425e-07
2.05131e-06
2.67961e-07
2.04976e-06
-1.30693e-09
2.04568e-06
-2.08642e-11
2.04354e-06
-2.93039e-08
2.04226e-06
2.96308e-08
2.03925e-06
-1.62478e-08
2.03943e-06
3.04708e-08
2.03568e-06
2.72652e-09
2.03123e-06
1.44147e-08
2.02783e-06
6.49112e-08
9.48226e-08
2.02118e-06
2.14295e-06
-3.31222e-08
2.14263e-06
-7.12521e-08
2.14197e-06
8.4937e-08
2.14044e-06
-1.45141e-07
2.14568e-06
2.91527e-07
2.1362e-06
-3.92186e-07
2.13986e-06
3.03919e-07
2.13224e-06
-2.0975e-07
2.14246e-06
3.54029e-07
2.14878e-06
2.61637e-07
2.14798e-06
-5.0139e-10
2.14313e-06
4.82848e-09
2.14165e-06
-2.78234e-08
2.13985e-06
3.1428e-08
2.13729e-06
-1.36822e-08
2.13708e-06
3.0672e-08
2.13319e-06
6.62158e-09
2.1289e-06
1.86998e-08
2.12519e-06
6.86249e-08
1.00282e-07
2.11973e-06
2.24529e-06
-3.19245e-08
2.24513e-06
-7.10906e-08
2.24445e-06
8.56115e-08
2.24282e-06
-1.43508e-07
2.2482e-06
2.86147e-07
2.23811e-06
-3.82098e-07
2.24262e-06
2.99409e-07
2.23419e-06
-2.01314e-07
2.24544e-06
3.4278e-07
2.25083e-06
2.56241e-07
2.25077e-06
-4.37457e-10
2.24512e-06
1.04808e-08
2.24428e-06
-2.69908e-08
2.24215e-06
3.35625e-08
2.23983e-06
-1.13593e-08
2.23956e-06
3.09398e-08
2.23519e-06
1.09856e-08
2.23131e-06
2.25888e-08
2.22739e-06
7.25406e-08
1.04805e-07
2.22287e-06
2.35253e-06
-3.05797e-08
2.35252e-06
-7.10841e-08
2.35183e-06
8.63024e-08
2.3501e-06
-1.41773e-07
2.35565e-06
2.80591e-07
2.34488e-06
-3.71328e-07
2.35032e-06
2.9397e-07
2.34108e-06
-1.92068e-07
2.35336e-06
3.305e-07
2.35771e-06
2.51883e-07
2.35842e-06
-1.13952e-09
2.35198e-06
1.69158e-08
2.35167e-06
-2.66831e-08
2.34944e-06
3.57994e-08
2.34704e-06
-8.96502e-09
2.34703e-06
3.09535e-08
2.34195e-06
1.60635e-08
2.33853e-06
2.60073e-08
2.33469e-06
7.63827e-08
1.08716e-07
2.33078e-06
2.46491e-06
-2.90985e-08
2.46506e-06
-7.12273e-08
2.46435e-06
8.70136e-08
2.46248e-06
-1.39906e-07
2.46827e-06
2.74796e-07
2.45677e-06
-3.59826e-07
2.46318e-06
2.87564e-07
2.45307e-06
-1.8196e-07
2.4664e-06
3.17172e-07
2.46969e-06
2.4859e-07
2.47118e-06
-2.62883e-09
2.46406e-06
2.40369e-08
2.46405e-06
-2.66731e-08
2.462e-06
3.78472e-08
2.45915e-06
-6.11447e-09
2.45966e-06
3.04442e-08
2.4538e-06
2.19235e-08
2.45069e-06
2.91203e-08
2.44729e-06
7.97846e-08
1.12274e-07
2.44373e-06
2.58269e-06
-2.74937e-08
2.58297e-06
-7.15125e-08
2.58225e-06
8.77426e-08
2.5802e-06
-1.37859e-07
2.5863e-06
2.6869e-07
2.57404e-06
-3.47563e-07
2.58144e-06
2.80168e-07
2.57038e-06
-1.70906e-07
2.58478e-06
3.02776e-07
2.58704e-06
2.46329e-07
2.5893e-06
-4.88778e-09
2.58167e-06
3.16623e-08
2.58165e-06
-2.6646e-08
2.58013e-06
3.93628e-08
2.57642e-06
-2.40187e-09
2.57762e-06
2.92446e-08
2.57116e-06
2.83836e-08
2.56793e-06
3.23485e-08
2.56536e-06
8.23527e-08
1.15594e-07
2.56204e-06
2.70611e-06
-2.57773e-08
2.70653e-06
-7.19305e-08
2.7058e-06
8.84765e-08
2.70351e-06
-1.35574e-07
2.71e-06
2.62206e-07
2.69695e-06
-3.34514e-07
2.70536e-06
2.71756e-07
2.69328e-06
-1.58824e-07
2.70873e-06
2.87322e-07
2.71004e-06
2.45022e-07
2.71298e-06
-7.83039e-09
2.70511e-06
3.95288e-08
2.7047e-06
-2.62319e-08
2.70406e-06
4.00054e-08
2.69915e-06
2.50868e-09
2.70104e-06
2.73534e-08
2.6944e-06
3.50205e-08
2.69053e-06
3.62154e-08
2.68907e-06
8.38125e-08
1.18614e-07
2.68605e-06
2.83545e-06
-2.39601e-08
2.83599e-06
-7.24694e-08
2.83528e-06
8.91898e-08
2.83269e-06
-1.32987e-07
2.83962e-06
2.55276e-07
2.82575e-06
-3.20645e-07
2.83521e-06
2.62294e-07
2.82205e-06
-1.45662e-07
2.83852e-06
2.70857e-07
2.83899e-06
2.44544e-07
2.84245e-06
-1.12842e-08
2.83468e-06
4.72975e-08
2.83348e-06
-2.50332e-08
2.83399e-06
3.94916e-08
2.82776e-06
8.74217e-09
2.83008e-06
2.50329e-08
2.82384e-06
4.12664e-08
2.81894e-06
4.11132e-08
2.81857e-06
8.41764e-08
1.2108e-07
2.81611e-06
2.97099e-06
-2.20523e-08
2.97163e-06
-7.31129e-08
2.97098e-06
8.98416e-08
2.96802e-06
-1.30025e-07
2.97546e-06
2.47835e-07
2.96073e-06
-3.05912e-07
2.97126e-06
2.51756e-07
2.95703e-06
-1.31425e-07
2.9744e-06
2.53485e-07
2.97423e-06
2.44716e-07
2.97793e-06
-1.49904e-08
2.97066e-06
5.45745e-08
2.96829e-06
-2.26719e-08
2.97011e-06
3.76707e-08
2.96271e-06
1.6152e-08
2.96495e-06
2.27902e-08
2.95967e-06
4.65455e-08
2.95364e-06
4.71418e-08
2.95402e-06
8.3794e-08
1.22618e-07
2.95248e-06
3.11302e-06
-2.00648e-08
3.11374e-06
-7.38374e-08
3.11321e-06
9.0373e-08
3.10979e-06
-1.26606e-07
3.11782e-06
2.39812e-07
3.10217e-06
-2.90271e-07
3.11379e-06
2.40141e-07
3.09855e-06
-1.16182e-07
3.11665e-06
2.35377e-07
3.11607e-06
2.453e-07
3.1197e-06
-1.86149e-08
3.11333e-06
6.09418e-08
3.10949e-06
-1.88289e-08
3.11262e-06
3.45386e-08
3.10438e-06
2.43881e-08
3.10592e-06
2.12513e-08
3.10205e-06
5.04165e-08
3.09513e-06
5.40581e-08
3.09567e-06
8.3258e-08
1.22885e-07
3.0954e-06
3.26186e-06
-1.80106e-08
3.26263e-06
-7.46105e-08
3.2623e-06
9.07062e-08
3.25832e-06
-1.22632e-07
3.267e-06
2.31139e-07
3.25042e-06
-2.73695e-07
3.26307e-06
2.27486e-07
3.24696e-06
-1.00071e-07
3.26556e-06
2.16778e-07
3.26487e-06
2.45987e-07
3.26803e-06
-2.17684e-08
3.26297e-06
6.59955e-08
3.25744e-06
-1.32914e-08
3.26171e-06
3.027e-08
3.25316e-06
3.29361e-08
3.25335e-06
2.10596e-08
3.25113e-06
5.26351e-08
3.24382e-06
6.13666e-08
3.24386e-06
8.3218e-08
1.21705e-07
3.24504e-06
3.41783e-06
-1.59056e-08
3.4186e-06
-7.53891e-08
3.41857e-06
9.07441e-08
3.41393e-06
-1.17998e-07
3.42331e-06
2.21759e-07
3.40581e-06
-2.56187e-07
3.41941e-06
2.13884e-07
3.40264e-06
-8.32999e-08
3.42142e-06
1.97996e-07
3.42098e-06
2.46427e-07
3.42326e-06
-2.4054e-08
3.41984e-06
6.94202e-08
3.41257e-06
-6.01887e-09
3.41761e-06
2.5222e-08
3.40934e-06
4.12133e-08
3.40776e-06
2.26408e-08
3.40708e-06
5.33096e-08
3.40003e-06
6.84131e-08
3.39907e-06
8.41807e-08
1.19202e-07
3.40158e-06
3.58127e-06
-1.37686e-08
3.582e-06
-7.61181e-08
3.58237e-06
9.0374e-08
3.57697e-06
-1.12595e-07
3.58709e-06
2.11638e-07
3.56871e-06
-2.37801e-07
3.5831e-06
1.99491e-07
3.56595e-06
-6.61494e-08
3.58453e-06
1.7941e-07
3.58474e-06
2.46226e-07
3.58576e-06
-2.50783e-08
3.58416e-06
7.10198e-08
3.57531e-06
2.83038e-09
3.58063e-06
1.9898e-08
3.5732e-06
4.86482e-08
3.56967e-06
2.61743e-08
3.57016e-06
5.28173e-08
3.56402e-06
7.45484e-08
3.56185e-06
8.63532e-08
1.15832e-07
3.56522e-06
3.75256e-06
-1.16221e-08
3.75317e-06
-7.67305e-08
3.75407e-06
8.94803e-08
3.74781e-06
-1.06337e-07
3.75866e-06
2.0078e-07
3.73951e-06
-2.18646e-07
3.75447e-06
1.84527e-07
3.73728e-06
-4.89598e-08
3.75526e-06
1.61434e-07
3.75649e-06
2.44995e-07
3.75593e-06
-2.45172e-08
3.75618e-06
7.07718e-08
3.7461e-06
1.29098e-08
3.75111e-06
1.48825e-08
3.74502e-06
5.47376e-08
3.73959e-06
3.1612e-08
3.7407e-06
5.1707e-08
3.736e-06
7.92415e-08
3.73275e-06
8.96088e-08
1.12278e-07
3.7363e-06
3.93206e-06
-9.49188e-09
3.93247e-06
-7.71464e-08
3.934e-06
8.79558e-08
3.92683e-06
-9.91723e-08
3.93837e-06
1.89243e-07
3.91863e-06
-1.98904e-07
3.93387e-06
1.69284e-07
3.91704e-06
-3.21236e-08
3.93398e-06
1.44489e-07
3.93655e-06
2.42422e-07
3.93426e-06
-2.22201e-08
3.93616e-06
6.88656e-08
3.92532e-06
2.37503e-08
3.92947e-06
1.07385e-08
3.92506e-06
5.91418e-08
3.918e-06
3.86751e-08
3.91911e-06
5.0593e-08
3.91618e-06
8.21741e-08
3.91226e-06
9.35298e-08
1.0925e-07
3.91529e-06
4.12016e-06
-7.40638e-09
4.12029e-06
-7.72753e-08
4.12254e-06
8.57057e-08
4.11448e-06
-9.11048e-08
4.12657e-06
1.77149e-07
4.10649e-06
-1.78827e-07
4.12167e-06
1.54109e-07
4.1056e-06
-1.6054e-08
4.12113e-06
1.28956e-07
4.12522e-06
2.38331e-07
4.12123e-06
-1.82304e-08
4.12446e-06
6.56381e-08
4.11336e-06
3.48546e-08
4.11616e-06
7.93813e-09
4.11358e-06
6.17187e-08
4.10537e-06
4.68873e-08
4.10589e-06
5.0071e-08
4.10479e-06
8.32795e-08
4.1008e-06
9.75144e-08
1.07288e-07
4.10276e-06
4.31729e-06
-5.39595e-09
4.31703e-06
-7.70173e-08
4.32008e-06
8.26564e-08
4.31118e-06
-8.2201e-08
4.32364e-06
1.64692e-07
4.30354e-06
-1.58733e-07
4.31826e-06
1.39387e-07
4.30336e-06
-1.14553e-09
4.3172e-06
1.15117e-07
4.3228e-06
2.32725e-07
4.31734e-06
-1.27704e-08
4.32147e-06
6.15077e-08
4.31057e-06
4.5753e-08
4.31168e-06
6.83068e-09
4.31089e-06
6.25125e-08
4.30213e-06
5.56421e-08
4.30157e-06
5.06288e-08
4.3021e-06
8.27524e-08
4.29871e-06
1.00907e-07
1.0662e-07
4.29938e-06
4.52387e-06
-3.49161e-09
4.52312e-06
-7.62682e-08
4.52701e-06
7.87635e-08
4.51741e-06
-7.25982e-08
4.52998e-06
1.52127e-07
4.51023e-06
-1.38986e-07
4.5241e-06
1.25512e-07
4.51068e-06
1.22828e-08
4.52268e-06
1.03108e-07
4.52963e-06
2.25776e-07
4.52302e-06
-6.15735e-09
4.52766e-06
5.6872e-08
4.51733e-06
5.60776e-08
4.51658e-06
7.58647e-09
4.51732e-06
6.17655e-08
4.5087e-06
6.4264e-08
4.50676e-06
5.25655e-08
4.50849e-06
8.10288e-08
4.50626e-06
1.03134e-07
1.07114e-07
4.50577e-06
4.74035e-06
-1.72268e-09
4.739e-06
-7.49251e-08
4.74375e-06
7.40197e-08
4.73366e-06
-6.25073e-08
4.74602e-06
1.39761e-07
4.72699e-06
-1.19957e-07
4.73968e-06
1.12827e-07
4.72791e-06
2.40517e-08
4.73813e-06
9.28889e-08
4.74616e-06
2.17745e-07
4.73868e-06
1.31961e-09
4.7435e-06
5.20545e-08
4.73405e-06
6.55248e-08
4.73137e-06
1.02629e-08
4.73333e-06
5.98142e-08
4.72545e-06
7.21399e-08
4.72207e-06
5.59481e-08
4.72442e-06
7.86812e-08
4.72372e-06
1.03832e-07
1.08318e-07
4.72251e-06
4.96719e-06
-1.14849e-10
4.96516e-06
-7.28963e-08
4.97072e-06
6.84605e-08
4.96042e-06
-5.2211e-08
4.97225e-06
1.27939e-07
4.95428e-06
-1.01996e-07
4.96552e-06
1.01591e-07
4.95543e-06
3.41401e-08
4.96404e-06
8.42857e-08
4.97287e-06
2.08909e-07
4.96474e-06
9.4528e-09
4.96949e-06
4.73009e-08
4.96119e-06
7.38307e-08
4.95661e-06
1.48357e-08
4.95937e-06
5.70606e-08
4.95274e-06
7.87713e-08
4.9481e-06
6.05869e-08
4.95042e-06
7.63566e-08
4.95137e-06
1.02886e-07
1.09592e-07
4.95009e-06
5.20489e-06
1.31184e-09
5.20211e-06
-7.01177e-08
5.2084e-06
6.21763e-08
5.19824e-06
-4.20532e-08
5.20915e-06
1.17026e-07
5.19255e-06
-8.53907e-08
5.20222e-06
9.19156e-08
5.19365e-06
4.27109e-08
5.2009e-06
7.70372e-08
5.21033e-06
1.99481e-07
5.20164e-06
1.81448e-08
5.20615e-06
4.27852e-08
5.19919e-06
8.07893e-08
5.19287e-06
2.11601e-08
5.196e-06
5.39323e-08
5.1909e-06
8.38655e-08
5.18539e-06
6.60961e-08
5.18718e-06
7.45715e-08
5.18953e-06
1.00537e-07
1.10245e-07
5.18887e-06
5.45395e-06
2.54643e-09
5.45041e-06
-6.65723e-08
5.45726e-06
5.53236e-08
5.44763e-06
-3.24209e-08
5.45729e-06
1.07365e-07
5.4422e-06
-7.03051e-08
5.45041e-06
8.37066e-08
5.44304e-06
5.00825e-08
5.44919e-06
7.08921e-08
5.45908e-06
1.89584e-07
5.44993e-06
2.73023e-08
5.45395e-06
3.87635e-08
5.44858e-06
8.61565e-08
5.44077e-06
2.89702e-08
5.44374e-06
5.09635e-08
5.44038e-06
8.72229e-08
5.43446e-06
7.20177e-08
5.4354e-06
7.36339e-08
5.43864e-06
9.72997e-08
1.09747e-07
5.43913e-06
5.71492e-06
3.58853e-09
5.71066e-06
-6.23137e-08
5.71784e-06
4.8141e-08
5.70912e-06
-2.37003e-08
5.71728e-06
9.92047e-08
5.70369e-06
-5.67132e-08
5.71071e-06
7.66856e-08
5.70419e-06
5.65977e-08
5.70936e-06
6.57297e-08
5.71969e-06
1.79246e-07
5.71022e-06
3.67778e-08
5.71342e-06
3.55579e-08
5.70981e-06
8.97744e-08
5.701e-06
3.77786e-08
5.70318e-06
4.87824e-08
5.70164e-06
8.87622e-08
5.69579e-06
7.78649e-08
5.6958e-06
7.3629e-08
5.69932e-06
9.37749e-08
1.07939e-07
5.70113e-06
5.98833e-06
4.44965e-09
5.98349e-06
-5.74678e-08
5.99068e-06
4.09432e-08
5.9832e-06
-1.62136e-08
5.98978e-06
9.26183e-08
5.97749e-06
-4.44153e-08
5.98368e-06
7.04909e-08
5.97777e-06
6.25098e-08
5.98189e-06
6.16091e-08
5.99271e-06
1.68425e-07
5.98315e-06
4.63404e-08
5.98517e-06
3.35344e-08
5.98337e-06
9.15734e-08
5.97408e-06
4.7068e-08
5.97508e-06
4.77832e-08
5.97516e-06
8.86823e-08
5.96985e-06
8.31723e-08
5.96903e-06
7.44568e-08
5.97236e-06
9.04419e-08
1.05052e-07
5.97525e-06
6.27478e-06
5.15379e-09
6.26952e-06
-5.22075e-08
6.27638e-06
3.4089e-08
6.27034e-06
-1.01748e-08
6.27551e-06
8.74495e-08
6.26416e-06
-3.30721e-08
6.26984e-06
6.48183e-08
6.26449e-06
6.78566e-08
6.26736e-06
5.87386e-08
6.27862e-06
1.57163e-07
6.26942e-06
5.55476e-08
6.26985e-06
3.30981e-08
6.26976e-06
9.16611e-08
6.26062e-06
5.62166e-08
6.2602e-06
4.81962e-08
6.26155e-06
8.73299e-08
6.25712e-06
8.76061e-08
6.25568e-06
7.58998e-08
6.25863e-06
8.74884e-08
1.01606e-07
6.26208e-06
6.57489e-06
5.7358e-09
6.56941e-06
-4.67265e-08
6.57556e-06
2.79393e-08
6.57104e-06
-5.66264e-09
6.57516e-06
8.3331e-08
6.56437e-06
-2.22807e-08
6.5697e-06
5.94866e-08
6.56504e-06
7.25162e-08
6.56644e-06
5.73368e-08
6.57795e-06
1.45653e-07
6.56963e-06
6.38735e-08
6.56832e-06
3.44085e-08
6.56952e-06
9.0458e-08
6.56113e-06
6.46115e-08
6.55931e-06
5.00146e-08
6.5615e-06
8.51396e-08
6.55813e-06
9.09752e-08
6.5563e-06
7.77319e-08
6.55895e-06
8.48405e-08
9.81016e-08
6.56245e-06
6.88929e-06
6.23709e-09
6.88378e-06
-4.12153e-08
6.8889e-06
2.28141e-08
6.88586e-06
-2.62133e-09
6.88943e-06
7.97655e-08
6.87884e-06
-1.16947e-08
6.8838e-06
5.45265e-08
6.8801e-06
7.62221e-08
6.87992e-06
5.7517e-08
6.89131e-06
1.34263e-07
6.88434e-06
7.08432e-08
6.88138e-06
3.73633e-08
6.88339e-06
8.84496e-08
6.87613e-06
7.18712e-08
6.87312e-06
5.30267e-08
6.87571e-06
8.25446e-08
6.87354e-06
9.31513e-08
6.87144e-06
7.98261e-08
6.87388e-06
8.24023e-08
9.46658e-08
6.87732e-06
7.21867e-06
6.69963e-09
7.2133e-06
-3.58437e-08
7.21718e-06
1.89361e-08
7.21541e-06
-8.50635e-10
7.21897e-06
7.62074e-08
7.20836e-06
-1.09089e-09
7.21274e-06
5.01453e-08
7.2103e-06
7.86686e-08
7.2086e-06
5.9213e-08
7.21938e-06
1.23483e-07
7.21405e-06
7.61806e-08
7.20992e-06
4.14906e-08
7.2121e-06
8.62667e-08
7.20621e-06
7.77672e-08
7.20235e-06
5.68813e-08
7.2049e-06
7.99995e-08
7.20404e-06
9.40025e-08
7.20182e-06
8.20471e-08
7.2039e-06
8.03218e-08
9.10541e-08
7.20752e-06
7.56376e-06
7.16221e-09
7.55868e-06
-3.07572e-08
7.56123e-06
1.63858e-08
7.56039e-06
-1.28802e-11
7.56439e-06
7.22112e-08
7.55381e-06
9.48409e-09
7.55722e-06
4.67359e-08
7.55625e-06
7.96409e-08
7.55341e-06
6.2049e-08
7.56296e-06
1.13935e-07
7.55939e-06
7.97515e-08
7.5546e-06
4.62744e-08
7.55652e-06
8.43491e-08
7.552e-06
8.22885e-08
7.54773e-06
6.115e-08
7.5498e-06
7.7931e-08
7.55031e-06
9.34892e-08
7.54825e-06
8.41161e-08
7.54971e-06
7.88586e-08
8.71563e-08
7.55361e-06
7.92532e-06
7.65155e-09
7.92062e-06
-2.60534e-08
7.92199e-06
1.50091e-08
7.92159e-06
3.96282e-10
7.92626e-06
6.75383e-08
7.91604e-06
1.97006e-08
7.91804e-06
4.47402e-08
7.91849e-06
7.91867e-08
7.91511e-06
6.54324e-08
7.92298e-06
1.06061e-07
7.92101e-06
8.17274e-08
7.91608e-06
5.12043e-08
7.91759e-06
8.28351e-08
7.91427e-06
8.56105e-08
7.90986e-06
6.55584e-08
7.9114e-06
7.63935e-08
7.91292e-06
9.19669e-08
7.91147e-06
8.55638e-08
7.91223e-06
7.81041e-08
8.32289e-08
7.91615e-06
8.30415e-06
8.18153e-09
8.29988e-06
-2.17855e-08
8.30035e-06
1.45397e-08
8.2998e-06
9.48986e-10
8.30522e-06
6.21226e-08
8.29589e-06
2.90253e-08
8.2961e-06
4.45265e-08
8.29768e-06
7.76129e-08
8.29439e-06
6.87237e-08
8.30047e-06
9.99745e-08
8.29956e-06
8.26368e-08
8.29505e-06
5.57198e-08
8.29622e-06
8.16604e-08
8.29376e-06
8.80727e-08
8.28952e-06
6.98002e-08
8.29058e-06
7.53371e-08
8.29261e-06
8.99348e-08
8.29217e-06
8.59999e-08
8.29232e-06
7.79548e-08
7.95645e-08
8.29599e-06
8.70109e-06
8.7504e-09
8.69728e-06
-1.7969e-08
8.69711e-06
1.47105e-08
8.69595e-06
2.1065e-09
8.70196e-06
5.61141e-08
8.69413e-06
3.68554e-08
8.69248e-06
4.61749e-08
8.69456e-06
7.55319e-08
8.69195e-06
7.13343e-08
8.69638e-06
9.55414e-08
8.696e-06
8.30165e-08
8.69223e-06
5.94912e-08
8.69316e-06
8.0733e-08
8.69144e-06
8.9788e-08
8.68752e-06
7.37262e-08
8.68809e-06
7.47608e-08
8.69041e-06
8.762e-08
8.69085e-06
8.55534e-08
8.69099e-06
7.7822e-08
7.6654e-08
8.6939e-06
9.11703e-06
9.34256e-09
9.11363e-06
-1.45744e-08
9.11309e-06
1.52555e-08
9.11105e-06
4.14118e-09
9.1173e-06
4.98696e-08
9.11145e-06
4.27007e-08
9.10826e-06
4.93694e-08
9.11007e-06
7.37148e-08
9.10838e-06
7.30276e-08
9.11164e-06
9.22782e-08
9.11146e-06
8.3205e-08
9.10821e-06
6.27381e-08
9.10913e-06
7.98089e-08
9.10838e-06
9.05425e-08
9.10467e-06
7.74372e-08
9.10475e-06
7.46785e-08
9.10733e-06
8.50446e-08
9.10829e-06
8.45911e-08
9.10893e-06
7.71749e-08
7.46474e-08
9.11094e-06
9.55288e-06
9.92466e-09
9.54982e-06
-1.15189e-08
9.54917e-06
1.59122e-08
9.54623e-06
7.0741e-09
9.55218e-06
4.39254e-08
9.5485e-06
4.63774e-08
9.54443e-06
5.34433e-08
9.54532e-06
7.28223e-08
9.5445e-06
7.38505e-08
9.54708e-06
8.96945e-08
9.54695e-06
8.33363e-08
9.54396e-06
6.57307e-08
9.54505e-06
7.87114e-08
9.54523e-06
9.03703e-08
9.54193e-06
8.07282e-08
9.54159e-06
7.50253e-08
9.5441e-06
8.25333e-08
9.54557e-06
8.31199e-08
9.54661e-06
7.61345e-08
7.29516e-08
9.54831e-06
1.00096e-05
1.04538e-08
1.00068e-05
-8.68929e-09
1.00062e-05
1.64457e-08
1.00026e-05
1.07532e-08
1.00076e-05
3.88925e-08
1.00061e-05
4.79231e-08
1.00019e-05
5.75733e-08
1.00015e-05
7.31981e-08
1.00011e-05
7.42868e-08
1.00036e-05
8.72344e-08
1.00034e-05
8.34692e-08
1.00007e-05
6.84322e-08
1.00017e-05
7.77328e-08
1.00027e-05
8.93737e-08
1.00004e-05
8.30125e-08
9.99941e-06
7.60386e-08
1.00019e-05
8.0088e-08
1.00037e-05
8.13163e-08
1.00049e-05
7.49114e-08
7.10187e-08
1.00068e-05
1.04882e-05
1.08806e-08
1.04855e-05
-5.97023e-09
1.04853e-05
1.66894e-08
1.04811e-05
1.49228e-08
1.04847e-05
3.53073e-08
1.04849e-05
4.76603e-08
1.04816e-05
6.08957e-08
1.048e-05
7.48167e-08
1.04794e-05
7.48884e-08
1.04819e-05
8.47536e-08
1.04821e-05
8.32836e-08
1.04796e-05
7.08865e-08
1.04802e-05
7.71676e-08
1.04819e-05
8.76725e-08
1.04807e-05
8.4163e-08
1.04794e-05
7.73076e-08
1.04815e-05
7.80064e-08
1.04837e-05
7.91657e-08
1.0485e-05
7.3595e-08
6.89695e-08
1.0487e-05
1.09897e-05
1.1156e-08
1.0987e-05
-3.24158e-09
1.09872e-05
1.65391e-08
1.09828e-05
1.92525e-08
1.09846e-05
3.35034e-08
1.09861e-05
4.6156e-08
1.09843e-05
6.27824e-08
1.09819e-05
7.71763e-08
1.09805e-05
7.62392e-08
1.09829e-05
8.23808e-08
1.09838e-05
8.24257e-08
1.09816e-05
7.30715e-08
1.09818e-05
7.69706e-08
1.09837e-05
8.57645e-08
1.09836e-05
8.42539e-08
1.09828e-05
7.81243e-08
1.09841e-05
7.6682e-08
1.09867e-05
7.65893e-08
1.0988e-05
7.22462e-08
6.69964e-08
1.099e-05
1.15153e-05
1.1236e-08
1.15124e-05
-4.07049e-10
1.1513e-05
1.59901e-08
1.15089e-05
2.33797e-08
1.15089e-05
3.34883e-08
1.15109e-05
4.41608e-08
1.15107e-05
6.30022e-08
1.15083e-05
7.95056e-08
1.1506e-05
7.86036e-08
1.15079e-05
8.04656e-08
1.15095e-05
8.08349e-08
1.15079e-05
7.46349e-08
1.15078e-05
7.70907e-08
1.15095e-05
8.40975e-08
1.15102e-05
8.34645e-08
1.15101e-05
7.82425e-08
1.1511e-05
7.57811e-08
1.15135e-05
7.41475e-08
1.15152e-05
7.05049e-08
6.54466e-08
1.15168e-05
1.2066e-05
1.10923e-08
1.2063e-05
2.59664e-09
1.20638e-05
1.51574e-08
1.20603e-05
2.68892e-08
1.20587e-05
3.50817e-08
1.20604e-05
4.24222e-08
1.20617e-05
6.16923e-08
1.20603e-05
8.09724e-08
1.20571e-05
8.1775e-08
1.20579e-05
7.96499e-08
1.20601e-05
7.86574e-08
1.20597e-05
7.50419e-08
1.20593e-05
7.74493e-08
1.20607e-05
8.27587e-08
1.20618e-05
8.22932e-08
1.20624e-05
7.76918e-08
1.20635e-05
7.4716e-08
1.20653e-05
7.22902e-08
1.20676e-05
6.82613e-08
6.43134e-08
1.20687e-05
1.2643e-05
1.07178e-08
1.26398e-05
5.77476e-09
1.26407e-05
1.42281e-08
1.26382e-05
2.9443e-08
1.26353e-05
3.7896e-08
1.26361e-05
4.16418e-08
1.26387e-05
5.91197e-08
1.26386e-05
8.10828e-08
1.26352e-05
8.51838e-08
1.26346e-05
8.02498e-08
1.26368e-05
7.64117e-08
1.26377e-05
7.41745e-08
1.26377e-05
7.74462e-08
1.26387e-05
8.17994e-08
1.26398e-05
8.11933e-08
1.26408e-05
7.66035e-08
1.26422e-05
7.33307e-08
1.26438e-05
7.06791e-08
1.2646e-05
6.60988e-08
6.29247e-08
1.26474e-05
1.32475e-05
1.01413e-08
1.32442e-05
9.04744e-09
1.3245e-05
1.34385e-08
1.32436e-05
3.08255e-08
1.32401e-05
4.14448e-08
1.32396e-05
4.21484e-08
1.32428e-05
5.59323e-08
1.32443e-05
7.95628e-08
1.32414e-05
8.81299e-08
1.32394e-05
8.21816e-08
1.3241e-05
7.48149e-08
1.3243e-05
7.2237e-08
1.3244e-05
7.63901e-08
1.32447e-05
8.10874e-08
1.32455e-05
8.03754e-08
1.32467e-05
7.54293e-08
1.32485e-05
7.15046e-08
1.32502e-05
6.90286e-08
1.32522e-05
6.4119e-08
6.11465e-08
1.32539e-05
1.38809e-05
9.42167e-09
1.38777e-05
1.22528e-08
1.3878e-05
1.31015e-08
1.38779e-05
3.09425e-08
1.38742e-05
4.51073e-08
1.38723e-05
4.41128e-08
1.38754e-05
5.28378e-08
1.38785e-05
7.64265e-08
1.38767e-05
8.98857e-08
1.38738e-05
8.50905e-08
1.38742e-05
7.44401e-08
1.38768e-05
6.96842e-08
1.3879e-05
7.41682e-08
1.38802e-05
7.99029e-08
1.38807e-05
7.98695e-08
1.38814e-05
7.47314e-08
1.38835e-05
6.93585e-08
1.38855e-05
6.70194e-08
1.38874e-05
6.22905e-08
5.89614e-08
1.38895e-05
1.45444e-05
8.65232e-09
1.45415e-05
1.5192e-08
1.45412e-05
1.34269e-08
1.45422e-05
2.99545e-08
1.4539e-05
4.82618e-08
1.45358e-05
4.7365e-08
1.4538e-05
5.05528e-08
1.45425e-05
7.19592e-08
1.45424e-05
8.99443e-08
1.45392e-05
8.83765e-08
1.45382e-05
7.54239e-08
1.45406e-05
6.72931e-08
1.45438e-05
7.09263e-08
1.4546e-05
7.77131e-08
1.45465e-05
7.93187e-08
1.45466e-05
7.46643e-08
1.45484e-05
6.76006e-08
1.4551e-05
6.43819e-08
1.45527e-05
6.05759e-08
5.62957e-08
1.45554e-05
1.52396e-05
7.94415e-09
1.52371e-05
1.76372e-08
1.5236e-05
1.45649e-08
1.52378e-05
2.81637e-08
1.52357e-05
5.03635e-08
1.52315e-05
5.15341e-08
1.52325e-05
4.96114e-08
1.52377e-05
6.66824e-08
1.52396e-05
8.80871e-08
1.52368e-05
9.12214e-08
1.52346e-05
7.76302e-08
1.5236e-05
6.58465e-08
1.52399e-05
6.70039e-08
1.52431e-05
7.44969e-08
1.52444e-05
7.80544e-08
1.52442e-05
7.48759e-08
1.52449e-05
6.69067e-08
1.52479e-05
6.14126e-08
1.52499e-05
5.85424e-08
5.38027e-08
1.52524e-05
1.59679e-05
7.41256e-09
1.59661e-05
1.93798e-08
1.59641e-05
1.65365e-08
1.59663e-05
2.60262e-08
1.59657e-05
5.09973e-08
1.59611e-05
5.6093e-08
1.59605e-05
5.02237e-08
1.59658e-05
6.1368e-08
1.59695e-05
8.43749e-08
1.59679e-05
9.28089e-08
1.59648e-05
8.07317e-08
1.5965e-05
6.568e-08
1.59689e-05
6.30886e-08
1.5973e-05
7.03541e-08
1.59753e-05
7.57627e-08
1.59755e-05
7.47369e-08
1.59752e-05
6.71547e-08
1.59775e-05
5.91404e-08
1.59802e-05
5.58487e-08
5.17552e-08
1.59822e-05
1.67309e-05
7.15753e-09
1.67299e-05
2.02942e-08
1.67273e-05
1.91698e-08
1.67293e-05
2.4079e-08
1.67302e-05
5.00536e-08
1.6726e-05
6.03151e-08
1.67238e-05
5.23865e-08
1.67284e-05
5.68006e-08
1.67337e-05
7.90966e-08
1.67339e-05
9.25382e-08
1.67305e-05
8.41405e-08
1.67294e-05
6.68007e-08
1.67325e-05
5.99642e-08
1.67374e-05
6.55273e-08
1.67407e-05
7.24405e-08
1.67417e-05
7.36969e-08
1.67412e-05
6.77138e-08
1.6742e-05
5.82914e-08
1.6745e-05
5.28677e-08
4.97967e-08
1.67469e-05
1.75303e-05
7.23888e-09
1.75302e-05
2.03622e-08
1.75272e-05
2.21668e-08
1.75285e-05
2.28091e-08
1.75308e-05
4.76921e-08
1.75277e-05
6.34741e-08
1.75243e-05
5.58054e-08
1.75274e-05
5.36489e-08
1.75337e-05
7.27656e-08
1.75361e-05
9.02185e-08
1.75332e-05
8.69733e-08
1.75309e-05
6.90873e-08
1.75328e-05
5.80662e-08
1.75378e-05
6.0564e-08
1.75421e-05
6.81787e-08
1.75442e-05
7.15861e-08
1.75441e-05
6.78385e-08
1.75437e-05
5.86205e-08
1.7546e-05
5.06405e-08
4.75208e-08
1.75482e-05
1.83679e-05
7.66859e-09
1.83686e-05
1.96693e-08
1.83656e-05
2.51459e-08
1.83659e-05
2.25836e-08
1.83692e-05
4.43023e-08
1.83677e-05
6.50135e-08
1.83636e-05
5.99474e-08
1.8365e-05
5.22392e-08
1.83716e-05
6.61237e-08
1.83758e-05
8.6009e-08
1.83745e-05
8.83009e-08
1.83714e-05
7.22001e-08
1.83719e-05
5.75573e-08
1.83763e-05
5.6161e-08
1.83813e-05
6.31417e-08
1.83844e-05
6.85161e-08
1.83853e-05
6.69494e-08
1.83845e-05
5.94513e-08
1.83853e-05
4.97674e-08
4.51243e-08
1.83877e-05
1.92457e-05
8.39887e-09
1.92469e-05
1.84273e-08
1.92443e-05
2.7712e-08
1.92434e-05
2.34979e-08
1.92472e-05
4.04965e-08
1.92476e-05
6.46388e-08
1.92435e-05
6.40267e-08
1.92431e-05
5.26295e-08
1.92492e-05
6.00476e-08
1.9255e-05
8.02515e-08