/*--------------------------------*- C++ -*----------------------------------*\
| =========                 |                                                 |
| \\      /  F ield         | OpenFOAM: The Open Source CFD Toolbox           |
|  \\    /   O peration     | Version:  2106                                  |
|   \\  /    A nd           | Website:  www.openfoam.com                      |
|    \\/     M anipulation  |                                                 |
\*---------------------------------------------------------------------------*/
FoamFile
{
    version     2.0;
    format      ascii;
    arch        "LSB;label=32;scalar=64";
    class       volVectorField;
    location    "0.285";
    object      U;
}
// * * * * * * * * * * * * * * * * * * * * * * * * * * * * * * * * * * * * * //

dimensions      [0 1 -1 0 0 0 0];

internalField   nonuniform List<vector> 
9600
(
(0.860003 -0.000628339 0)
(1.13186 -0.000243534 0)
(0.885939 0.000835998 0)
(1.11574 -0.00187154 0)
(0.90273 0.00362152 0)
(1.07855 -0.00750537 0)
(0.906418 0.00915693 0)
(1.14862 -0.00919015 0)
(0.811413 0.00694763 0)
(1.14976 0.00794903 0)
(0.80634 -0.00147182 0)
(1.13714 0.00268122 0)
(0.861243 -0.00255127 0)
(1.10995 0.00217667 0)
(0.879131 -0.00317736 0)
(1.09727 0.00247462 0)
(0.872706 -0.00332559 0)
(1.10341 0.000542925 0)
(0.852139 -0.00234845 0)
(1.10829 -9.09391e-05 0)
(0.869953 -0.000644879 0)
(1.12142 -0.00027921 0)
(0.896437 0.000800156 0)
(1.10467 -0.0018519 0)
(0.912861 0.00378609 0)
(1.06717 -0.00730741 0)
(0.91525 0.00814244 0)
(1.13053 -0.00772866 0)
(0.828027 0.00678151 0)
(1.12268 0.00840453 0)
(0.84328 -0.00158207 0)
(1.10195 0.00198985 0)
(0.903466 -0.0022516 0)
(1.06991 0.00201685 0)
(0.930831 -0.0029916 0)
(1.04494 0.00264264 0)
(0.944105 -0.00329604 0)
(1.0268 0.000910626 0)
(0.955557 -0.00149856 0)
(0.992656 0.000103706 0)
(0.888739 -0.000653598 0)
(1.10151 -0.000334462 0)
(0.915677 0.000789047 0)
(1.08466 -0.00183676 0)
(0.931437 0.00399191 0)
(1.04951 -0.00720674 0)
(0.932537 0.00726633 0)
(1.10305 -0.00653432 0)
(0.863086 0.00661056 0)
(1.07886 0.00836248 0)
(0.897631 -0.00148932 0)
(1.05262 0.00117791 0)
(0.950649 -0.00177624 0)
(1.02679 0.00156154 0)
(0.971276 -0.0024607 0)
(1.00627 0.00219227 0)
(0.978677 -0.00253948 0)
(0.992937 0.000171482 0)
(0.980136 -0.000302973 0)
(0.9769 -0.000335924 0)
(0.913201 -0.000636765 0)
(1.07583 -0.000419457 0)
(0.939041 0.000810437 0)
(1.06019 -0.00185191 0)
(0.953275 0.0041783 0)
(1.03078 -0.00711941 0)
(0.953576 0.00665797 0)
(1.07294 -0.00570486 0)
(0.905481 0.00676166 0)
(1.03806 0.00795889 0)
(0.945165 -0.00119028 0)
(1.01547 0.000450862 0)
(0.979286 -0.00145351 0)
(1.00451 0.00126872 0)
(0.986963 -0.00213718 0)
(0.993864 0.00201336 0)
(0.986797 -0.00221833 0)
(0.987465 0.000106099 0)
(0.982815 0.000350441 0)
(0.979841 0.00032238 0)
(0.938892 -0.00059477 0)
(1.04973 -0.000526305 0)
(0.961183 0.000850076 0)
(1.0368 -0.00188714 0)
(0.972735 0.00433778 0)
(1.01553 -0.00703334 0)
(0.972454 0.00618262 0)
(1.04632 -0.00516581 0)
(0.942549 0.00714899 0)
(1.0127 0.00750806 0)
(0.975446 -0.000918133 0)
(0.998287 -1.96007e-05 0)
(0.991172 -0.00131626 0)
(0.99844 0.00114877 0)
(0.99208 -0.00187966 0)
(0.992422 0.00187021 0)
(0.990361 -0.00180711 0)
(0.988495 -7.93064e-05 0)
(0.985739 0.000902882 0)
(0.982886 0.000714513 0)
(0.961586 -0.000537919 0)
(1.02804 -0.000632544 0)
(0.978307 0.000893807 0)
(1.01871 -0.00192274 0)
(0.986538 0.00444811 0)
(1.00577 -0.00696001 0)
(0.985552 0.00583007 0)
(1.02649 -0.00482097 0)
(0.968116 0.00752011 0)
(1.00243 0.00713789 0)
(0.991204 -0.00072807 0)
(0.99412 -0.000246288 0)
(0.995276 -0.00128181 0)
(0.998038 0.00108019 0)
(0.994712 -0.00165225 0)
(0.993414 0.00173159 0)
(0.993231 -0.00145833 0)
(0.990642 -0.000155707 0)
(0.988508 0.00133115 0)
(0.985877 0.00124044 0)
(0.9787 -0.000480039 0)
(1.01319 -0.00071657 0)
(0.989287 0.000929814 0)
(1.00725 -0.00194725 0)
(0.994487 0.0044982 0)
(1.00089 -0.00688835 0)
(0.992641 0.0055967 0)
(1.01356 -0.00461298 0)
(0.982583 0.00774692 0)
(1.00046 0.00687064 0)
(0.998633 -0.000582101 0)
(0.994755 -0.00033815 0)
(0.996858 -0.00126358 0)
(0.998395 0.00100899 0)
(0.996139 -0.00145054 0)
(0.994513 0.00158569 0)
(0.994921 -0.00115759 0)
(0.992453 -0.000191469 0)
(0.990277 0.00169147 0)
(0.988101 0.00178487 0)
(0.989778 -0.000432389 0)
(1.00482 -0.000769089 0)
(0.995173 0.00095342 0)
(1.00128 -0.00195822 0)
(0.998248 0.00449892 0)
(0.999061 -0.00680779 0)
(0.995562 0.00544861 0)
(1.00594 -0.00448778 0)
(0.989353 0.00783401 0)
(1.00104 0.00667133 0)
(1.00207 -0.000452712 0)
(0.996169 -0.000360231 0)
(0.997642 -0.00121985 0)
(0.998548 0.000938977 0)
(0.996621 -0.00126929 0)
(0.995118 0.00144511 0)
(0.995635 -0.000893222 0)
(0.993467 -0.000173205 0)
(0.991254 0.00198738 0)
(0.989392 0.00234537 0)
(0.995948 -0.000399429 0)
(1.00097 -0.000793533 0)
(0.99785 0.000967307 0)
(0.998732 -0.00195853 0)
(0.999723 0.00446774 0)
(0.998658 -0.00671517 0)
(0.996398 0.0053553 0)
(1.00179 -0.00439863 0)
(0.991901 0.00782087 0)
(1.00169 0.0064996 0)
(1.00367 -0.000335729 0)
(0.997306 -0.00034121 0)
(0.998134 -0.00115036 0)
(0.998604 0.000880409 0)
(0.996679 -0.0011014 0)
(0.995302 0.00132124 0)
(0.995835 -0.000661484 0)
(0.993914 -0.000104055 0)
(0.991762 0.00222684 0)
(0.990123 0.00289649 0)
(0.998908 -0.000379159 0)
(0.999536 -0.000799431 0)
(0.998931 0.000976467 0)
(0.997847 -0.00195208 0)
(1.0002 0.00441813 0)
(0.998728 -0.00660999 0)
(0.996523 0.00529534 0)
(0.999651 -0.00431813 0)
(0.992596 0.00774314 0)
(1.00195 0.00633285 0)
(1.00439 -0.000233999 0)
(0.9981 -0.000294724 0)
(0.998531 -0.00106723 0)
(0.998705 0.000841823 0)
(0.996694 -0.000944727 0)
(0.995346 0.0012206 0)
(0.99586 -0.00046073 0)
(0.994133 1.08708e-05 0)
(0.992058 0.00241857 0)
(0.990617 0.00341619 0)
(1.00013 -0.000366622 0)
(0.999105 -0.000796288 0)
(0.999359 0.000984185 0)
(0.997612 -0.00194122 0)
(1.00032 0.00435807 0)
(0.998854 -0.0064935 0)
(0.996547 0.00525132 0)
(0.998611 -0.00423201 0)
(0.99269 0.00762497 0)
(1.00198 0.00616454 0)
(1.00469 -0.000149314 0)
(0.99862 -0.000231248 0)
(0.998874 -0.000980913 0)
(0.998865 0.00082888 0)
(0.996783 -0.000805394 0)
(0.995416 0.00114881 0)
(0.995884 -0.00028349 0)
(0.994317 0.000159451 0)
(0.992301 0.0025732 0)
(0.991038 0.00388693 0)
(1.00055 -0.000357313 0)
(0.998993 -0.000790339 0)
(0.999543 0.000991794 0)
(0.99759 -0.00192694 0)
(1.00032 0.00429166 0)
(0.998903 -0.00636801 0)
(0.996624 0.00521081 0)
(0.998138 -0.0041326 0)
(0.992705 0.00747771 0)
(1.00194 0.00599833 0)
(1.00476 -8.47044e-05 0)
(0.998909 -0.000153678 0)
(0.999131 -0.000900895 0)
(0.999033 0.00084083 0)
(0.996927 -0.000687027 0)
(0.995547 0.00110941 0)
(0.995959 -0.000124606 0)
(0.994534 0.000335907 0)
(0.992565 0.00271573 0)
(0.99145 0.00429159 0)
(1.00065 -0.000348409 0)
(0.998965 -0.000784641 0)
(0.999619 0.000999581 0)
(0.997638 -0.00190991 0)
(1.00029 0.00422121 0)
(0.998871 -0.00623489 0)
(0.996732 0.00516593 0)
(0.997964 -0.00401721 0)
(0.992807 0.00730671 0)
(1.00189 0.00583897 0)
(1.0047 -3.97772e-05 0)
(0.99901 -5.78692e-05 0)
(0.999278 -0.000834622 0)
(0.999165 0.000873597 0)
(0.99708 -0.000585082 0)
(0.995714 0.00109737 0)
(0.996078 2.46923e-05 0)
(0.994786 0.000526988 0)
(0.992863 0.00287473 0)
(0.99187 0.00462342 0)
(1.00062 -0.000338559 0)
(0.998967 -0.000780325 0)
(0.999634 0.00100749 0)
(0.997718 -0.00189087 0)
(1.00027 0.00414826 0)
(0.998797 -0.00609409 0)
(0.996822 0.00511139 0)
(0.997955 -0.00388586 0)
(0.993011 0.00711438 0)
(1.00183 0.00569248 0)
(1.00456 -1.22679e-05 0)
(0.99898 5.62856e-05 0)
(0.999327 -0.000787602 0)
(0.999247 0.000923805 0)
(0.997216 -0.000497995 0)
(0.995889 0.00110286 0)
(0.996215 0.000175623 0)
(0.995054 0.000711111 0)
(0.993183 0.0030622 0)
(0.992291 0.00489892 0)
(1.00055 -0.000327275 0)
(0.998989 -0.000777702 0)
(0.999615 0.00101551 0)
(0.997814 -0.00187044 0)
(1.00025 0.00407354 0)
(0.998725 -0.00594454 0)
(0.99687 0.00504388 0)
(0.998034 -0.00373984 0)
(0.993283 0.00690155 0)
(1.00175 0.00556553 0)
(1.00439 -3.00819e-06 0)
(0.998883 0.000191575 0)
(0.999314 -0.000759818 0)
(0.999289 0.000987564 0)
(0.997324 -0.000421731 0)
(0.996048 0.00111392 0)
(0.996345 0.000334324 0)
(0.995318 0.000875548 0)
(0.993507 0.00326959 0)
(0.992697 0.00513705 0)
(1.00048 -0.000314468 0)
(0.99902 -0.000776826 0)
(0.999582 0.00102372 0)
(0.997912 -0.00184882 0)
(1.00022 0.00399675 0)
(0.998682 -0.00578485 0)
(0.996883 0.00496144 0)
(0.998146 -0.00357995 0)
(0.993579 0.00666905 0)
(1.00165 0.00546035 0)
(1.00421 -1.21479e-05 0)
(0.998771 0.000349491 0)
(0.999277 -0.000748638 0)
(0.999308 0.00105838 0)
(0.997405 -0.00034705 0)
(0.996184 0.00112135 0)
(0.996453 0.000516022 0)
(0.995565 0.00101842 0)
(0.993823 0.0034749 0)
(0.993078 0.00534599 0)
(1.00043 -0.000300238 0)
(0.999053 -0.000777639 0)
(0.999548 0.00103218 0)
(0.998004 -0.00182578 0)
(1.00018 0.00391725 0)
(0.998673 -0.00561428 0)
(0.996883 0.00486288 0)
(0.998257 -0.00340476 0)
(0.993863 0.00641561 0)
(1.00153 0.00537945 0)
(1.00405 -4.13354e-05 0)
(0.998676 0.000526925 0)
(0.999245 -0.000749781 0)
(0.999318 0.00112868 0)
(0.99746 -0.000264542 0)
(0.996295 0.00111304 0)
(0.996535 0.000736068 0)
(0.995791 0.00114682 0)
(0.994127 0.00365741 0)
(0.993428 0.00554595 0)
(1.00039 -0.000284668 0)
(0.999084 -0.000780161 0)
(0.999521 0.00104098 0)
(0.998086 -0.00180091 0)
(1.00013 0.00383398 0)
(0.998691 -0.00543217 0)
(0.996889 0.00474795 0)
(0.99835 -0.00321252 0)
(0.994123 0.0061393 0)
(1.00138 0.00532444 0)
(1.0039 -8.97198e-05 0)
(0.998609 0.00071868 0)
(0.999228 -0.000753614 0)
(0.999331 0.00118887 0)
(0.997497 -0.000157754 0)
(0.996389 0.00107475 0)
(0.996598 0.000987116 0)
(0.995998 0.00127241 0)
(0.994427 0.0037961 0)
(0.993751 0.00575384 0)
(1.00037 -0.000267894 0)
(0.999112 -0.00078424 0)
(0.9995 0.00104991 0)
(0.998161 -0.00177327 0)
(1.00007 0.00374559 0)
(0.998723 -0.00523827 0)
(0.996912 0.00461656 0)
(0.998425 -0.00300194 0)
(0.994361 0.00584192 0)
(1.00122 0.00528944 0)
(1.00376 -0.000152254 0)
(0.998566 0.000919567 0)
(0.999226 -0.000753212 0)
(0.999351 0.00122548 0)
(0.997518 -9.90386e-06 0)
(0.996475 0.00100814 0)
(0.996652 0.00125114 0)
(0.996189 0.00141648 0)
(0.994731 0.00387347 0)
(0.994056 0.00595485 0)
(1.00035 -0.000250112 0)
(0.999139 -0.00078967 0)
(0.999482 0.00105874 0)
(0.99823 -0.00174203 0)
(1 0.00365155 0)
(0.99876 -0.00503232 0)
(0.996949 0.00446729 0)
(0.998486 -0.00277063 0)
(0.994586 0.00552317 0)
(1.00104 0.00527402 0)
(1.00363 -0.000230486 0)
(0.998539 0.00112403 0)
(0.999232 -0.000735123 0)
(0.999382 0.00122839 0)
(0.997529 0.00017826 0)
(0.99656 0.000924929 0)
(0.996708 0.00151285 0)
(0.996367 0.00160304 0)
(0.995043 0.00388544 0)
(0.994353 0.00612052 0)
(1.00034 -0.000231341 0)
(0.999168 -0.000796348 0)
(0.999468 0.0010672 0)
(0.998296 -0.00170666 0)
(0.999933 0.00355085 0)
(0.998799 -0.00481272 0)
(0.996997 0.00429889 0)
(0.998537 -0.00251822 0)
(0.994808 0.00518346 0)
(1.00085 0.00527553 0)
(1.0035 -0.000319594 0)
(0.998523 0.00132204 0)
(0.999239 -0.000686017 0)
(0.999423 0.00118821 0)
(0.997532 0.000410221 0)
(0.996648 0.000836611 0)
(0.996775 0.00174481 0)
(0.996532 0.00184824 0)
(0.995363 0.00385403 0)
(0.994655 0.00623343 0)
(1.00033 -0.000211573 0)
(0.999197 -0.000804268 0)
(0.999455 0.00107489 0)
(0.99836 -0.00166594 0)
(0.999868 0.00344213 0)
(0.998837 -0.00457897 0)
(0.997051 0.00411162 0)
(0.998583 -0.00224744 0)
(0.995032 0.00482988 0)
(1.00066 0.00528309 0)
(1.00338 -0.00040923 0)
(0.998516 0.00149976 0)
(0.99924 -0.000600241 0)
(0.999478 0.00110356 0)
(0.997531 0.000677892 0)
(0.996738 0.000762413 0)
(0.996864 0.00192219 0)
(0.996686 0.0021467 0)
(0.995685 0.0038094 0)
(0.994967 0.00627427 0)
(1.00032 -0.000191288 0)
(0.999229 -0.000812745 0)
(0.999444 0.00108055 0)
(0.998424 -0.0016182 0)
(0.999805 0.00332483 0)
(0.998876 -0.00433069 0)
(0.997109 0.00390542 0)
(0.998623 -0.00195811 0)
(0.99526 0.0044618 0)
(1.00047 0.00530022 0)
(1.00325 -0.000491455 0)
(0.998516 0.0016457 0)
(0.999232 -0.000465183 0)
(0.999546 0.000980495 0)
(0.997529 0.000960179 0)
(0.996827 0.000728666 0)
(0.996979 0.00203148 0)
(0.996833 0.00247385 0)
(0.995999 0.00378261 0)
(0.995296 0.00623236 0)
(1.0003 -0.000170246 0)
(0.999262 -0.00082168 0)
(0.999434 0.00108309 0)
(0.998487 -0.00156268 0)
(0.999744 0.00319709 0)
(0.998915 -0.00406694 0)
(0.997172 0.00368235 0)
(0.998658 -0.00165561 0)
(0.995493 0.00408589 0)
(1.00029 0.00531829 0)
(1.00313 -0.00055742 0)
(0.998527 0.00174936 0)
(0.999213 -0.000274202 0)
(0.999625 0.000826946 0)
(0.997532 0.00124501 0)
(0.996907 0.000755154 0)
(0.997122 0.00206885 0)
(0.996978 0.00279918 0)
(0.996297 0.00380499 0)
(0.995641 0.00611234 0)
(1.00029 -0.000148668 0)
(0.999296 -0.000830672 0)
(0.999425 0.00108166 0)
(0.99855 -0.00149812 0)
(0.999687 0.00305838 0)
(0.998953 -0.00378924 0)
(0.99724 0.00344598 0)
(0.998688 -0.00134639 0)
(0.99573 0.0037134 0)
(1.00011 0.00532167 0)
(1.003 -0.0005946 0)
(0.998549 0.00180501 0)
(0.999181 -4.51072e-05 0)
(0.999715 0.00066339 0)
(0.997545 0.0015084 0)
(0.996974 0.000852748 0)
(0.997289 0.00205152 0)
(0.997133 0.0030931 0)
(0.996571 0.00389288 0)
(0.995998 0.00593092 0)
(1.00028 -0.00012709 0)
(0.999332 -0.000838553 0)
(0.999418 0.0010744 0)
(0.998613 -0.00142161 0)
(0.999632 0.00290798 0)
(0.998991 -0.00349928 0)
(0.997313 0.00319819 0)
(0.998713 -0.001033 0)
(0.995969 0.00334898 0)
(0.999937 0.00530458 0)
(1.00286 -0.000594478 0)
(0.998584 0.00181705 0)
(0.999137 0.000217743 0)
(0.999813 0.000503973 0)
(0.997575 0.00173261 0)
(0.997025 0.00102276 0)
(0.997475 0.002003 0)
(0.997305 0.00332896 0)
(0.996818 0.00404947 0)
(0.996355 0.00572656 0)
(1.00026 -0.000105195 0)
(0.999369 -0.000845106 0)
(0.999413 0.00106064 0)
(0.998676 -0.00133361 0)
(0.999581 0.00274775 0)
(0.999027 -0.00319901 0)
(0.997393 0.00294292 0)
(0.998734 -0.000722443 0)
(0.996208 0.00300276 0)
(0.999773 0.00525993 0)
(1.00272 -0.000556877 0)
(0.998632 0.0017861 0)
(0.999082 0.000513847 0)
(0.999913 0.000363388 0)
(0.997626 0.00190473 0)
(0.997058 0.00125796 0)
(0.997672 0.0019472 0)
(0.997504 0.00348526 0)
(0.99704 0.00425381 0)
(0.996699 0.00554141 0)
(1.00025 -8.40629e-05 0)
(0.999406 -0.000848332 0)
(0.999411 0.00103801 0)
(0.998737 -0.00123296 0)
(0.999535 0.00257935 0)
(0.999061 -0.00289133 0)
(0.997479 0.00268538 0)
(0.998752 -0.000424119 0)
(0.996446 0.00268572 0)
(0.99962 0.00518423 0)
(1.00257 -0.000479969 0)
(0.998696 0.00171676 0)
(0.999019 0.000824229 0)
(1.00001 0.000258305 0)
(0.997705 0.00201329 0)
(0.997076 0.00154419 0)
(0.997866 0.00191021 0)
(0.997734 0.00355637 0)
(0.997245 0.00447085 0)
(0.997015 0.00540992 0)
(1.00024 -6.3127e-05 0)
(0.999445 -0.000848253 0)
(0.999411 0.00100563 0)
(0.998798 -0.00112064 0)
(0.999492 0.00240367 0)
(0.999092 -0.00258067 0)
(0.997571 0.00243266 0)
(0.998769 -0.000143485 0)
(0.99668 0.00240169 0)
(0.999478 0.00507607 0)
(1.00242 -0.000365636 0)
(0.998774 0.00162367 0)
(0.99895 0.0011346 0)
(1.0001 0.000200596 0)
(0.997815 0.00206195 0)
(0.997084 0.00186138 0)
(0.998047 0.00191168 0)
(0.997995 0.00354835 0)
(0.997444 0.00466599 0)
(0.997291 0.00535424 0)
(1.00023 -4.31571e-05 0)
(0.999484 -0.000843429 0)
(0.999414 0.000963797 0)
(0.998856 -0.00100011 0)
(0.999455 0.00222581 0)
(0.99912 -0.0022738 0)
(0.997667 0.00219506 0)
(0.998785 0.000112467 0)
(0.99691 0.00215421 0)
(0.999349 0.00493693 0)
(1.00226 -0.00022388 0)
(0.998866 0.00151148 0)
(0.998879 0.00143369 0)
(1.00018 0.000197789 0)
(0.997956 0.00205385 0)
(0.997089 0.00218475 0)
(0.998203 0.0019671 0)
(0.998282 0.00347483 0)
(0.997653 0.00480659 0)
(0.997521 0.00537742 0)
(1.00021 -2.49553e-05 0)
(0.999523 -0.000831151 0)
(0.999421 0.000909393 0)
(0.998913 -0.000870668 0)
(0.999423 0.00204832 0)
(0.999146 -0.00197434 0)
(0.997767 0.00197619 0)
(0.998801 0.000338755 0)
(0.997133 0.00193962 0)
(0.999233 0.00477399 0)
(1.0021 -6.11087e-05 0)
(0.998972 0.00138629 0)
(0.998811 0.00171029 0)
(1.00023 0.000253149 0)
(0.998127 0.00199475 0)
(0.997101 0.0024874 0)
(0.998327 0.00208344 0)
(0.998585 0.00336112 0)
(0.997887 0.00486737 0)
(0.997711 0.00546047 0)
(1.0002 -7.65098e-06 0)
(0.999563 -0.000813004 0)
(0.999431 0.000846372 0)
(0.998968 -0.000737207 0)
(0.999396 0.00187608 0)
(0.999171 -0.00168995 0)
(0.997869 0.00178111 0)
(0.998818 0.000536167 0)
(0.997349 0.00175223 0)
(0.999132 0.00459484 0)
(1.00193 0.000121992 0)
(0.999091 0.00125935 0)
(0.998752 0.00195798 0)
(1.00027 0.0003664 0)
(0.998325 0.00189943 0)
(0.99713 0.00274894 0)
(0.998416 0.00225943 0)
(0.99889 0.0032444 0)
(0.998156 0.00484027 0)
(0.997873 0.00556176 0)
(1.00019 7.34843e-06 0)
(0.999602 -0.000786458 0)
(0.999445 0.000774316 0)
(0.999021 -0.000603091 0)
(0.999373 0.00171561 0)
(0.999194 -0.0014271 0)
(0.997973 0.00161368 0)
(0.998835 0.000701132 0)
(0.997558 0.00159456 0)
(0.999046 0.00440374 0)
(1.00175 0.000319659 0)
(0.99922 0.00113363 0)
(0.998707 0.00217432 0)
(1.00028 0.000537574 0)
(0.998542 0.00178686 0)
(0.997188 0.00295206 0)
(0.998472 0.00248027 0)
(0.999179 0.00315711 0)
(0.99846 0.00473804 0)
(0.998029 0.00563318 0)
(1.00018 2.05371e-05 0)
(0.999641 -0.000750605 0)
(0.999464 0.000694389 0)
(0.999073 -0.000473975 0)
(0.999354 0.00157191 0)
(0.999217 -0.00118763 0)
(0.998077 0.00146966 0)
(0.998852 0.000842325 0)
(0.997758 0.00145887 0)
(0.998976 0.00419904 0)
(1.00157 0.00053342 0)
(0.999357 0.00101578 0)
(0.998681 0.00234442 0)
(1.00026 0.000760676 0)
(0.99877 0.00168183 0)
(0.997281 0.00308802 0)
(0.998503 0.00271561 0)
(0.999439 0.00310812 0)
(0.998792 0.0045853 0)
(0.998201 0.00563877 0)
(1.00017 3.19491e-05 0)
(0.999677 -0.000706225 0)
(0.999487 0.000610437 0)
(0.999124 -0.000355494 0)
(0.999338 0.00144931 0)
(0.999239 -0.000970959 0)
(0.998182 0.00134588 0)
(0.998868 0.000971126 0)
(0.997949 0.00133982 0)
(0.998924 0.00397747 0)
(1.00139 0.000757046 0)
(0.999496 0.000919673 0)
(0.99868 0.00245949 0)
(1.00022 0.00102047 0)
(0.998997 0.00160242 0)
(0.997411 0.00316494 0)
(0.998519 0.0029495 0)
(0.999663 0.00309659 0)
(0.999139 0.00440976 0)
(0.998407 0.00556117 0)
(1.00016 4.10388e-05 0)
(0.999711 -0.000653948 0)
(0.999513 0.000523985 0)
(0.999174 -0.000251237 0)
(0.999324 0.00134972 0)
(0.99926 -0.000774554 0)
(0.998288 0.00123622 0)
(0.998884 0.00108978 0)
(0.998128 0.00124301 0)
(0.99889 0.00374554 0)
(1.0012 0.000983627 0)
(0.999633 0.000852507 0)
(0.998706 0.00252187 0)
(1.00016 0.00130164 0)
(0.999215 0.00156021 0)
(0.997577 0.00318886 0)
(0.998527 0.00317563 0)
(0.999844 0.00312341 0)
(0.999485 0.00423791 0)
(0.998654 0.00541216 0)
(1.00014 4.89811e-05 0)
(0.999742 -0.000597081 0)
(0.999541 0.000440218 0)
(0.999226 -0.000165193 0)
(0.999313 0.00127113 0)
(0.999278 -0.000594836 0)
(0.998395 0.00113473 0)
(0.9989 0.00119773 0)
(0.998295 0.00117401 0)
(0.998876 0.00350134 0)
(1.00101 0.00120825 0)
(0.999761 0.000822204 0)
(0.998761 0.0025346 0)
(1.00009 0.00158185 0)
(0.999414 0.00156208 0)
(0.997778 0.0031601 0)
(0.998539 0.00337199 0)
(0.999982 0.0031839 0)
(0.999815 0.00408483 0)
(0.998934 0.00521885 0)
(1.00013 5.48804e-05 0)
(0.99977 -0.000536599 0)
(0.999571 0.000361854 0)
(0.999279 -9.66388e-05 0)
(0.999305 0.00120888 0)
(0.999293 -0.000425835 0)
(0.998502 0.00103651 0)
(0.998917 0.00129244 0)
(0.998447 0.00113495 0)
(0.998882 0.00324664 0)
(1.00083 0.00141722 0)
(0.999875 0.000846777 0)
(0.998843 0.00251002 0)
(1.00001 0.00183746 0)
(0.999586 0.00160382 0)
(0.998005 0.00309604 0)
(0.998564 0.00352389 0)
(1.00008 0.00326968 0)
(1.00012 0.00396128 0)
(0.999232 0.00501273 0)
(1.00012 6.01407e-05 0)
(0.999794 -0.000476032 0)
(0.999601 0.000296148 0)
(0.999334 -4.9715e-05 0)
(0.999301 0.00115736 0)
(0.999304 -0.000260289 0)
(0.998608 0.000943233 0)
(0.998936 0.0013689 0)
(0.998581 0.00112883 0)
(0.998906 0.0029924 0)
(1.00066 0.00159327 0)
(0.999973 0.000921651 0)
(0.998944 0.00246726 0)
(0.99994 0.0020669 0)
(0.99973 0.00168041 0)
(0.99825 0.00301313 0)
(0.998609 0.0036334 0)
(1.00015 0.0033637 0)
(1.00038 0.00386325 0)
(0.999528 0.00482827 0)
(1.00011 6.49231e-05 0)
(0.999814 -0.000415827 0)
(0.99963 0.000242285 0)
(0.999391 -1.90191e-05 0)
(0.999303 0.00110898 0)
(0.99931 -9.61876e-05 0)
(0.998713 0.000859265 0)
(0.99896 0.00142514 0)
(0.998697 0.00115738 0)
(0.998943 0.00274927 0)
(1.00051 0.00173215 0)
(1.00005 0.00102103 0)
(0.999062 0.00241906 0)
(0.999874 0.00226661 0)
(0.999842 0.00178779 0)
(0.998506 0.00291245 0)
(0.998678 0.00369743 0)
(1.00019 0.00346171 0)
(1.00062 0.00376783 0)
(0.999813 0.00467206 0)
(1.0001 6.93123e-05 0)
(0.999832 -0.000358542 0)
(0.999656 0.000205664 0)
(0.999447 -4.21685e-06 0)
(0.99931 0.00105598 0)
(0.999312 6.97555e-05 0)
(0.998815 0.00079094 0)
(0.998991 0.00145083 0)
(0.998796 0.00121088 0)
(0.998988 0.00253036 0)
(1.00038 0.00183002 0)
(1.00012 0.00113551 0)
(0.999192 0.0023728 0)
(0.999818 0.00242839 0)
(0.99992 0.00192016 0)
(0.998763 0.00280753 0)
(0.998778 0.00370351 0)
(1.0002 0.00356966 0)
(1.00082 0.00367973 0)
(1.00009 0.00450743 0)
(1.00009 7.41268e-05 0)
(0.999848 -0.000306069 0)
(0.99968 0.000185061 0)
(0.999503 1.34851e-06 0)
(0.999326 0.000990943 0)
(0.999311 0.000233837 0)
(0.99891 0.000748712 0)
(0.99903 0.00144172 0)
(0.998879 0.00127986 0)
(0.999036 0.0023508 0)
(1.00027 0.00188127 0)
(1.00018 0.00125307 0)
(0.999328 0.0023343 0)
(0.999777 0.00255541 0)
(0.999966 0.00207187 0)
(0.999007 0.00272286 0)
(0.998911 0.00364645 0)
(1.0002 0.00366564 0)
(1.00098 0.00363253 0)
(1.00037 0.0043047 0)
(1.00009 7.90524e-05 0)
(0.999862 -0.000257532 0)
(0.999702 0.000175188 0)
(0.999556 6.09101e-06 0)
(0.99935 0.000912479 0)
(0.99931 0.000388032 0)
(0.998995 0.000735268 0)
(0.999077 0.0014129 0)
(0.998954 0.00134453 0)
(0.999083 0.00221376 0)
(1.00018 0.00191114 0)
(1.00022 0.00135953 0)
(0.99947 0.00230051 0)
(0.999754 0.00265341 0)
(0.999985 0.00222915 0)
(0.999225 0.00267264 0)
(0.999072 0.00353839 0)
(1.00021 0.00370572 0)
(1.00108 0.00363731 0)
(1.00065 0.00409247 0)
(1.00008 8.46432e-05 0)
(0.999875 -0.00021406 0)
(0.999721 0.000175199 0)
(0.999604 1.62422e-05 0)
(0.999384 0.000824834 0)
(0.999312 0.00052217 0)
(0.99907 0.00075644 0)
(0.999129 0.00137572 0)
(0.999022 0.00139786 0)
(0.999128 0.00211085 0)
(1.0001 0.00193289 0)
(1.00027 0.00145433 0)
(0.999615 0.00225775 0)
(0.99975 0.00272296 0)
(0.999983 0.00238138 0)
(0.999406 0.00265684 0)
(0.999243 0.00342235 0)
(1.00024 0.00367545 0)
(1.00115 0.00365636 0)
(1.00088 0.00392634 0)
(1.00007 9.05049e-05 0)
(0.999887 -0.000175278 0)
(0.999738 0.000180411 0)
(0.999648 3.63779e-05 0)
(0.999424 0.000736826 0)
(0.999321 0.000626172 0)
(0.999135 0.000807471 0)
(0.999183 0.00133819 0)
(0.999087 0.00142913 0)
(0.999171 0.00203504 0)
(1.00003 0.00194684 0)
(1.0003 0.0015422 0)
(0.999762 0.00221207 0)
(0.99977 0.00275574 0)
(0.999968 0.0025259 0)
(0.999553 0.00266243 0)
(0.99941 0.00332433 0)
(1.0003 0.00360252 0)
(1.00119 0.00363409 0)
(1.00107 0.00382225 0)
(1.00007 9.67616e-05 0)
(0.999899 -0.000142199 0)
(0.999754 0.000188832 0)
(0.999685 7.03226e-05 0)
(0.999469 0.000648349 0)
(0.999339 0.000695876 0)
(0.999193 0.000874804 0)
(0.999235 0.00131877 0)
(0.999151 0.0014385 0)
(0.999216 0.00197073 0)
(0.999978 0.00196336 0)
(1.00032 0.00162618 0)
(0.999907 0.00217076 0)
(0.999814 0.00275013 0)
(0.999948 0.00264887 0)
(0.999663 0.00269289 0)
(0.999564 0.00323624 0)
(1.00035 0.00352406 0)
(1.00123 0.0035609 0)
(1.00121 0.00374838 0)
(1.00006 0.000102495 0)
(0.999911 -0.000111234 0)
(0.999771 0.000195703 0)
(0.999716 0.000116722 0)
(0.999516 0.000570298 0)
(0.999369 0.000726745 0)
(0.999248 0.000946034 0)
(0.999284 0.00132311 0)
(0.999211 0.00144675 0)
(0.999265 0.00190451 0)
(0.999937 0.00197622 0)
(1.00034 0.00171287 0)
(1.00004 0.00213668 0)
(0.999882 0.00271021 0)
(0.999934 0.00273673 0)
(0.999743 0.00274198 0)
(0.999699 0.00316206 0)
(1.00041 0.00345511 0)
(1.00128 0.00346517 0)
(1.00132 0.00365395 0)
(1.00006 0.000107396 0)
(0.999923 -8.1268e-05 0)
(0.99979 0.000200529 0)
(0.999742 0.000168818 0)
(0.999561 0.000512094 0)
(0.999409 0.000727206 0)
(0.999305 0.00100893 0)
(0.999329 0.0013537 0)
(0.999265 0.00145789 0)
(0.999315 0.00183847 0)
(0.999912 0.00197178 0)
(1.00035 0.00179737 0)
(1.00016 0.00212752 0)
(0.999966 0.00264019 0)
(0.999935 0.00278055 0)
(0.999798 0.00278935 0)
(0.999816 0.00310121 0)
(1.00045 0.003391 0)
(1.00131 0.00338381 0)
(1.00142 0.00351575 0)
(1.00005 0.000111285 0)
(0.999935 -5.19935e-05 0)
(0.999812 0.000200873 0)
(0.999765 0.000226959 0)
(0.999602 0.00047401 0)
(0.999459 0.000709429 0)
(0.999369 0.00104928 0)
(0.999372 0.00140137 0)
(0.99931 0.00148077 0)
(0.999366 0.00177686 0)
(0.999904 0.00195385 0)
(1.00036 0.00186508 0)
(1.00026 0.00213978 0)
(1.00006 0.00257875 0)
(0.999957 0.0027644 0)
(0.999839 0.00282715 0)
(0.999914 0.00304931 0)
(1.0005 0.00332071 0)
(1.00131 0.00333675 0)
(1.00151 0.00336698 0)
(1.00005 0.000113238 0)
(0.999946 -2.1078e-05 0)
(0.999836 0.000194556 0)
(0.999787 0.000283626 0)
(0.999639 0.000465601 0)
(0.999515 0.000680482 0)
(0.999442 0.00105846 0)
(0.999419 0.00144829 0)
(0.999346 0.00153185 0)
(0.999415 0.00172431 0)
(0.999913 0.00191057 0)
(1.00038 0.00191438 0)
(1.00035 0.00215505 0)
(1.00014 0.00254757 0)
(0.999992 0.00272214 0)
(0.99988 0.00282194 0)
(0.999993 0.00301213 0)
(1.00055 0.00323503 0)
(1.00129 0.00330484 0)
(1.00157 0.00326365 0)
(1.00005 0.000112994 0)
(0.999955 1.14051e-05 0)
(0.999862 0.00018466 0)
(0.999811 0.000333727 0)
(0.999669 0.00048289 0)
(0.999571 0.000650576 0)
(0.999526 0.00103917 0)
(0.999476 0.00148218 0)
(0.999374 0.00160204 0)
(0.999451 0.00170122 0)
(0.999937 0.00184716 0)
(1.00041 0.00193502 0)
(1.00044 0.00217705 0)
(1.00022 0.00251636 0)
(1.00003 0.0026945 0)
(0.999925 0.00277166 0)
(1.00006 0.00296349 0)
(1.0006 0.00314728 0)
(1.00128 0.00325034 0)
(1.00157 0.00323001 0)
(1.00004 0.000110376 0)
(0.999963 4.57475e-05 0)
(0.99989 0.000172243 0)
(0.999838 0.000373161 0)
(0.999694 0.000519482 0)
(0.999624 0.000632354 0)
(0.999619 0.00099742 0)
(0.999548 0.00149266 0)
(0.9994 0.00167581 0)
(0.999473 0.00171044 0)
(0.999965 0.00178648 0)
(1.00046 0.00190864 0)
(1.00052 0.00219253 0)
(1.00029 0.00250324 0)
(1.00006 0.00266833 0)
(0.999961 0.002728 0)
(1.00013 0.00288066 0)
(1.00065 0.00306272 0)
(1.00129 0.0031579 0)
(1.00154 0.00322953 0)
(1.00004 0.000105293 0)
(0.999968 8.15178e-05 0)
(0.999918 0.00016092 0)
(0.99987 0.000398508 0)
(0.999716 0.000567894 0)
(0.99967 0.000631772 0)
(0.999718 0.000944523 0)
(0.999639 0.00147422 0)
(0.999432 0.00174437 0)
(0.999479 0.00175111 0)
(0.999985 0.0017438 0)
(1.00053 0.00185096 0)
(1.00062 0.00216436 0)
(1.00037 0.00250615 0)
(1.00008 0.00265057 0)
(0.999985 0.00268873 0)
(1.00019 0.00279179 0)
(1.0007 0.00296476 0)
(1.00133 0.0030458 0)
(1.00152 0.00319346 0)
(1.00004 9.85947e-05 0)
(0.999973 0.000117671 0)
(0.999945 0.000154038 0)
(0.999906 0.000405593 0)
(0.999737 0.000621755 0)
(0.999706 0.00065528 0)
(0.999816 0.000889547 0)
(0.99975 0.00142091 0)
(0.999478 0.00179162 0)
(0.999473 0.00181902 0)
(0.99999 0.00172789 0)
(1.00059 0.00178221 0)
(1.00074 0.0020977 0)
(1.00046 0.0024777 0)
(1.0001 0.0026658 0)
(0.999993 0.00265693 0)
(1.00023 0.00270742 0)
(1.00074 0.00286037 0)
(1.00138 0.00292318 0)
(1.00156 0.00308868 0)
(1.00004 9.06268e-05 0)
(0.999974 0.000152425 0)
(0.999968 0.000153321 0)
(0.999949 0.000396721 0)
(0.99976 0.00067212 0)
(0.99973 0.000703406 0)
(0.999906 0.000845014 0)
(0.999877 0.00133867 0)
(0.999548 0.00180619 0)
(0.999463 0.00189678 0)
(0.999972 0.00174535 0)
(1.00065 0.00171465 0)
(1.00088 0.00200423 0)
(1.00058 0.00241062 0)
(1.00014 0.00267299 0)
(0.999974 0.00267431 0)
(1.00026 0.00262412 0)
(1.00078 0.00275466 0)
(1.00143 0.00280771 0)
(1.00166 0.00292552 0)
(1.00004 8.24612e-05 0)
(0.999974 0.00018346 0)
(0.999985 0.000163342 0)
(0.999995 0.000373167 0)
(0.999789 0.000708493 0)
(0.999743 0.000767794 0)
(0.99998 0.000821171 0)
(1.00002 0.00124124 0)
(0.999647 0.00178122 0)
(0.999459 0.00196829 0)
(0.999931 0.0018003 0)
(1.00069 0.00166914 0)
(1.00102 0.00188632 0)
(1.00074 0.00231369 0)
(1.0002 0.00263491 0)
(0.999939 0.00271982 0)
(1.00025 0.00258518 0)
(1.00082 0.00262702 0)
(1.00146 0.00271591 0)
(1.00179 0.00274321 0)
(1.00004 7.61668e-05 0)
(0.999972 0.000206528 0)
(0.999995 0.000183021 0)
(1.00004 0.000344499 0)
(0.999827 0.000726924 0)
(0.999749 0.000839994 0)
(1.00003 0.000821941 0)
(1.00015 0.00114047 0)
(0.999775 0.00171496 0)
(0.999475 0.00201731 0)
(0.999871 0.00187858 0)
(1.00069 0.00165801 0)
(1.00115 0.00176831 0)
(1.00092 0.0021827 0)
(1.00032 0.00256384 0)
(0.99992 0.0027377 0)
(1.00018 0.00261937 0)
(1.00083 0.00250688 0)
(1.00147 0.00261059 0)
(1.0019 0.00260318 0)
(1.00004 7.16e-05 0)
(0.99997 0.000221797 0)
(0.999997 0.000212516 0)
(1.00009 0.000316528 0)
(0.999877 0.000721226 0)
(0.999752 0.000911175 0)
(1.00006 0.000852607 0)
(1.00028 0.00104953 0)
(0.999931 0.00161019 0)
(0.99952 0.00202913 0)
(0.999802 0.00196596 0)
(1.00065 0.00168419 0)
(1.00125 0.00167364 0)
(1.00111 0.00202302 0)
(1.00048 0.00245793 0)
(0.999948 0.00271011 0)
(1.00008 0.00267767 0)
(1.00079 0.00245806 0)
(1.00149 0.00246892 0)
(1.00196 0.00250966 0)
(1.00004 7.09329e-05 0)
(0.99997 0.000226388 0)
(0.99999 0.000248493 0)
(1.00013 0.000295234 0)
(0.999937 0.000691689 0)
(0.99976 0.000969489 0)
(1.00006 0.000909771 0)
(1.00039 0.000982313 0)
(1.00011 0.00148135 0)
(0.999605 0.00199304 0)
(0.999739 0.00204528 0)
(1.00057 0.00174433 0)
(1.00131 0.00161166 0)
(1.00131 0.00186468 0)
(1.00068 0.0023073 0)
(1.00003 0.00264168 0)
(0.999995 0.00270537 0)
(1.00067 0.00249091 0)
(1.00149 0.00234326 0)
(1.002 0.00240988 0)
(1.00003 7.35569e-05 0)
(0.999973 0.00022165 0)
(0.999979 0.000286706 0)
(1.00016 0.00028688 0)
(1.00001 0.000643738 0)
(0.999778 0.00100419 0)
(1.00005 0.000981357 0)
(1.00046 0.00094606 0)
(1.00028 0.00134634 0)
(0.999732 0.00190786 0)
(0.9997 0.00209518 0)
(1.00046 0.00183064 0)
(1.00132 0.0015863 0)
(1.00148 0.00172634 0)
(1.00092 0.00212989 0)
(1.00018 0.00252837 0)
(0.999958 0.00268571 0)
(1.0005 0.00255673 0)
(1.00141 0.00229056 0)
(1.00203 0.00228771 0)
(1.00003 7.96527e-05 0)
(0.999979 0.000210006 0)
(0.999965 0.000321145 0)
(1.00017 0.000293099 0)
(1.00008 0.000587021 0)
(0.999812 0.0010094 0)
(1.00002 0.0010555 0)