/*--------------------------------*- C++ -*----------------------------------*\
| =========                 |                                                 |
| \\      /  F ield         | OpenFOAM: The Open Source CFD Toolbox           |
|  \\    /   O peration     | Version:  2106                                  |
|   \\  /    A nd           | Website:  www.openfoam.com                      |
|    \\/     M anipulation  |                                                 |
\*---------------------------------------------------------------------------*/
FoamFile
{
    version     2.0;
    format      ascii;
    arch        "LSB;label=32;scalar=64";
    class       volVectorField;
    location    "0.395";
    object      U;
}
// * * * * * * * * * * * * * * * * * * * * * * * * * * * * * * * * * * * * * //

dimensions      [0 1 -1 0 0 0 0];

internalField   nonuniform List<vector> 
9600
(
(0.855368 -0.0100417 0)
(1.13022 0.0114749 0)
(0.831624 -0.00654072 0)
(1.18743 -0.000616748 0)
(0.926217 0.000548653 0)
(1.17553 0.00714296 0)
(0.904797 0.00452058 0)
(1.15341 0.000547061 0)
(0.88012 -0.00427288 0)
(1.16333 -0.00150072 0)
(0.919532 -0.00695185 0)
(1.14126 0.00437948 0)
(0.916486 0.000707858 0)
(1.14229 0.00641556 0)
(0.908498 -0.00052846 0)
(1.13351 0.00164403 0)
(0.893984 -0.00251743 0)
(1.13366 0.000574842 0)
(0.881143 -0.000840481 0)
(1.13786 0.000514234 0)
(0.86656 -0.010028 0)
(1.12556 0.0117747 0)
(0.853002 -0.00714543 0)
(1.17822 -0.00138187 0)
(0.942198 0.000393793 0)
(1.16551 0.00747995 0)
(0.928779 0.00455624 0)
(1.13628 0.00116676 0)
(0.91039 -0.00461466 0)
(1.14005 -0.00186426 0)
(0.950038 -0.00682297 0)
(1.11712 0.00461408 0)
(0.955555 0.000575554 0)
(1.10656 0.00661354 0)
(0.963942 -0.000351424 0)
(1.08079 0.00206258 0)
(0.969038 -0.0022783 0)
(1.05495 0.000640781 0)
(0.984731 -0.00010178 0)
(1.02146 0.000682651 0)
(0.884149 -0.0100334 0)
(1.11518 0.0119763 0)
(0.884355 -0.00770685 0)
(1.15611 -0.00190852 0)
(0.969974 0.000357852 0)
(1.1454 0.00780819 0)
(0.96791 0.00476082 0)
(1.1085 0.0014903 0)
(0.952997 -0.00480955 0)
(1.10319 -0.00225382 0)
(0.988803 -0.00655853 0)
(1.08164 0.00457047 0)
(0.999178 0.000765698 0)
(1.06724 0.00649332 0)
(1.00821 0.000286959 0)
(1.04078 0.00183638 0)
(1.00715 -0.00147572 0)
(1.01914 -2.33884e-06 0)
(1.00884 0.00114192 0)
(1.00484 0.000874167 0)
(0.905741 -0.0100753 0)
(1.0996 0.0119778 0)
(0.917512 -0.00807229 0)
(1.12274 -0.00246953 0)
(0.998775 0.00033278 0)
(1.11972 0.00792355 0)
(1.00619 0.0050919 0)
(1.07912 0.0017372 0)
(0.988619 -0.00474933 0)
(1.06708 -0.00264191 0)
(1.01392 -0.00629431 0)
(1.05348 0.00436692 0)
(1.02358 0.00103663 0)
(1.04484 0.00631129 0)
(1.02451 0.000823347 0)
(1.0253 0.00186207 0)
(1.01399 -0.000940823 0)
(1.01046 -2.67021e-05 0)
(1.00733 0.00167501 0)
(1.00376 0.001523 0)
(0.928676 -0.0101452 0)
(1.08071 0.0118735 0)
(0.946514 -0.00822532 0)
(1.08512 -0.00307441 0)
(1.01894 0.000229 0)
(1.09382 0.00787512 0)
(1.03184 0.00550216 0)
(1.05529 0.00201164 0)
(1.00844 -0.00455985 0)
(1.04036 -0.00292853 0)
(1.02082 -0.00613932 0)
(1.03659 0.00413027 0)
(1.03056 0.0012278 0)
(1.03471 0.00621567 0)
(1.02634 0.00135031 0)
(1.01947 0.00201921 0)
(1.01258 -0.0003756 0)
(1.00666 -3.82143e-05 0)
(1.00403 0.00215194 0)
(1.00077 0.00202928 0)
(0.950161 -0.0102242 0)
(1.06095 0.0117172 0)
(0.968278 -0.00820046 0)
(1.05119 -0.0036588 0)
(1.0267 2.72904e-05 0)
(1.07076 0.00774801 0)
(1.04186 0.00591952 0)
(1.03883 0.00233389 0)
(1.01476 -0.00431271 0)
(1.02337 -0.00306354 0)
(1.01677 -0.00609266 0)
(1.02567 0.00384425 0)
(1.02819 0.00133999 0)
(1.02803 0.00618866 0)
(1.02293 0.00184824 0)
(1.01521 0.00220884 0)
(1.00956 0.000162837 0)
(1.00344 4.68245e-05 0)
(1.00067 0.00258473 0)
(0.997567 0.00257359 0)
(0.968053 -0.0102956 0)
(1.04242 0.0115373 0)
(0.982702 -0.00805256 0)
(1.02582 -0.00414167 0)
(1.02404 -0.000246566 0)
(1.05102 0.00758381 0)
(1.03983 0.00627835 0)
(1.02794 0.00266935 0)
(1.01381 -0.0040336 0)
(1.01315 -0.00308213 0)
(1.00964 -0.00608919 0)
(1.01657 0.00350472 0)
(1.0216 0.00140519 0)
(1.0211 0.00614891 0)
(1.01747 0.00230489 0)
(1.01095 0.00237241 0)
(1.00608 0.000667849 0)
(1.00065 0.000186317 0)
(0.997526 0.00295601 0)
(0.994789 0.00315864 0)
(0.98135 -0.010345 0)
(1.02652 0.0113624 0)
(0.991455 -0.00784056 0)
(1.00973 -0.00448319 0)
(1.01579 -0.000542413 0)
(1.03414 0.00740019 0)
(1.03143 0.0065417 0)
(1.02035 0.00296357 0)
(1.01053 -0.00374747 0)
(1.00713 -0.00303982 0)
(1.00356 -0.00606196 0)
(1.00848 0.00315591 0)
(1.01373 0.0014462 0)
(1.01384 0.00605495 0)
(1.01159 0.00270112 0)
(1.00697 0.00247929 0)
(1.00292 0.0011266 0)
(0.998444 0.000371416 0)
(0.995236 0.00326621 0)
(0.992803 0.00376603 0)
(0.990171 -0.0103596 0)
(1.01399 0.0112037 0)
(0.996522 -0.00761798 0)
(1.00095 -0.00468289 0)
(1.0065 -0.000802064 0)
(1.02007 0.00720872 0)
(1.02147 0.00669668 0)
(1.01473 0.00317198 0)
(1.00741 -0.00347598 0)
(1.00374 -0.00297382 0)
(0.999634 -0.00597476 0)
(1.00198 0.00284666 0)
(1.0066 0.00148205 0)
(1.00732 0.00590154 0)
(1.00647 0.00301354 0)
(1.00374 0.00252943 0)
(1.00058 0.00150723 0)
(0.996986 0.00059866 0)
(0.994004 0.00350759 0)
(0.991855 0.0043757 0)
(0.995361 -0.010333 0)
(1.00504 0.0110526 0)
(0.999409 -0.00741689 0)
(0.996824 -0.00476127 0)
(0.998922 -0.000987891 0)
(1.0092 0.00701382 0)
(1.01287 0.00674871 0)
(1.0106 0.00327883 0)
(1.00518 -0.00323038 0)
(1.00198 -0.00290407 0)
(0.997544 -0.00582055 0)
(0.997504 0.00259712 0)
(1.00133 0.00152649 0)
(1.00241 0.00569565 0)
(1.00272 0.00324124 0)
(1.00147 0.00253011 0)
(0.999134 0.00180513 0)
(0.996245 0.000857866 0)
(0.99364 0.00368141 0)
(0.991807 0.00496064 0)
(0.998029 -0.0102669 0)
(0.999356 0.0108951 0)
(1.00102 -0.00724363 0)
(0.995197 -0.00475175 0)
(0.993934 -0.00109389 0)
(1.00173 0.00681615 0)
(1.00677 0.00671849 0)
(1.00774 0.00329473 0)
(1.00383 -0.00301155 0)
(1.00117 -0.00283932 0)
(0.996642 -0.00561103 0)
(0.994929 0.00240151 0)
(0.998111 0.00158262 0)
(0.999333 0.00545405 0)
(1.00037 0.00339782 0)
(1.0001 0.00250026 0)
(0.998388 0.00202863 0)
(0.996016 0.00114296 0)
(0.993796 0.00380159 0)
(0.992283 0.00548919 0)
(0.999191 -0.0101687 0)
(0.996226 0.0107221 0)
(1.00186 -0.00708946 0)
(0.99474 -0.00468925 0)
(0.991234 -0.00113319 0)
(0.997285 0.00661653 0)
(1.00311 0.00663422 0)
(1.00593 0.00324389 0)
(1.00308 -0.00281341 0)
(1.00084 -0.00278075 0)
(0.996371 -0.00536521 0)
(0.993748 0.00224253 0)
(0.996526 0.00164715 0)
(0.997758 0.00519652 0)
(0.999119 0.00349988 0)
(0.999376 0.00246287 0)
(0.998069 0.00219147 0)
(0.996057 0.00144955 0)
(0.994157 0.0038912 0)
(0.992924 0.00593721 0)
(0.999596 -0.0100471 0)
(0.994783 0.0105305 0)
(1.00224 -0.00694217 0)
(0.994754 -0.00460083 0)
(0.990077 -0.00112513 0)
(0.995047 0.00641297 0)
(1.00123 0.00652061 0)
(1.00487 0.00315027 0)
(1.00267 -0.00262708 0)
(1.00071 -0.00272723 0)
(0.996377 -0.00509954 0)
(0.993391 0.00210398 0)
(0.995947 0.00171273 0)
(0.997136 0.00494065 0)
(0.998555 0.00356257 0)
(0.999049 0.00243976 0)
(0.997958 0.00230698 0)
(0.996187 0.00176657 0)
(0.994535 0.00397754 0)
(0.993523 0.00629414 0)
(0.999697 -0.00990922 0)
(0.99426 0.0103205 0)
(1.00233 -0.00679127 0)
(0.994919 -0.00450396 0)
(0.989767 -0.00108686 0)
(0.994147 0.00620201 0)
(1.00039 0.00639532 0)
(1.00427 0.00303158 0)
(1.00243 -0.00244479 0)
(1.00065 -0.00267676 0)
(0.99648 -0.00482582 0)
(0.993423 0.00197672 0)
(0.995854 0.00177159 0)
(0.996992 0.00469867 0)
(0.998329 0.0035967 0)
(0.998914 0.00244063 0)
(0.997926 0.00239303 0)
(0.996319 0.0020779 0)
(0.99486 0.00408309 0)
(0.994015 0.00656149 0)
(0.999712 -0.00975942 0)
(0.994141 0.0100935 0)
(1.00228 -0.00663023 0)
(0.99511 -0.00440906 0)
(0.989837 -0.00102918 0)
(0.993916 0.00598153 0)
(1.00005 0.00626835 0)
(1.00391 0.00289906 0)
(1.00225 -0.00226287 0)
(1.0006 -0.00262622 0)
(0.996605 -0.00455219 0)
(0.993594 0.00185817 0)
(0.995937 0.00181899 0)
(0.997029 0.00447607 0)
(0.998234 0.00360938 0)
(0.998854 0.00246275 0)
(0.99792 0.00247181 0)
(0.996431 0.00236815 0)
(0.995133 0.00421571 0)
(0.994415 0.00675256 0)
(0.999722 -0.00959978 0)
(0.994157 0.00985041 0)
(1.00216 -0.00645591 0)
(0.995288 -0.00432151 0)
(0.990041 -0.000957186 0)
(0.99396 0.00575015 0)
(0.999912 0.00614514 0)
(1.00366 0.00275706 0)
(1.00209 -0.00207979 0)
(1.00054 -0.00257373 0)
(0.996728 -0.00428408 0)
(0.993792 0.00175135 0)
(0.996056 0.00185126 0)
(0.997112 0.00427271 0)
(0.998177 0.00360628 0)
(0.998817 0.00250183 0)
(0.997926 0.00256109 0)
(0.996532 0.00263083 0)
(0.995377 0.00436545 0)
(0.994761 0.00688714 0)
(0.999744 -0.00943099 0)
(0.994204 0.00959192 0)
(1.002 -0.00626707 0)
(0.995448 -0.00424366 0)
(0.990275 -0.000872771 0)
(0.994096 0.00550689 0)
(0.999836 0.00602687 0)
(1.00345 0.00260924 0)
(1.00195 -0.00189559 0)
(1.00047 -0.00251775 0)
(0.996845 -0.00402539 0)
(0.993984 0.00166061 0)
(0.996168 0.00186467 0)
(0.997194 0.00408892 0)
(0.998128 0.00359092 0)
(0.998787 0.00254879 0)
(0.997942 0.00266678 0)
(0.996634 0.0028724 0)
(0.995612 0.00451802 0)
(0.995085 0.00698355 0)
(0.999774 -0.0092531 0)
(0.994256 0.00931803 0)
(1.00184 -0.00606317 0)
(0.995597 -0.00417642 0)
(0.990508 -0.000776389 0)
(0.994254 0.00525222 0)
(0.999779 0.00591242 0)
(1.00326 0.00245843 0)
(1.00181 -0.00171146 0)
(1.00041 -0.00245328 0)
(0.996961 -0.00377985 0)
(0.994164 0.00158851 0)
(0.996268 0.00186077 0)
(0.997268 0.00392333 0)
(0.998079 0.0035696 0)
(0.998761 0.00259159 0)
(0.997969 0.00278993 0)
(0.996741 0.00310261 0)
(0.995849 0.00466247 0)
(0.995401 0.00705289 0)
(0.999807 -0.00906599 0)
(0.99431 0.00902853 0)
(1.00167 -0.00584375 0)
(0.99574 -0.00412045 0)
(0.990737 -0.000668713 0)
(0.994414 0.00498616 0)
(0.999725 0.00580231 0)
(1.00307 0.0023034 0)
(1.00168 -0.00153002 0)
(1.00035 -0.00237725 0)
(0.997079 -0.00355184 0)
(0.994337 0.0015349 0)
(0.99636 0.00184514 0)
(0.997336 0.00376651 0)
(0.99803 0.00355648 0)
(0.998737 0.00262559 0)
(0.998005 0.00292328 0)
(0.996852 0.00332481 0)
(0.996087 0.00478878 0)
(0.995715 0.00709769 0)
(0.999842 -0.00886961 0)
(0.994367 0.00872358 0)
(1.00151 -0.00560929 0)
(0.995884 -0.00407506 0)
(0.990963 -0.000550153 0)
(0.994575 0.00470858 0)
(0.999673 0.00569471 0)
(1.00289 0.0021482 0)
(1.00155 -0.00135656 0)
(1.00028 -0.00228662 0)
(0.997201 -0.00334449 0)
(0.994508 0.00149936 0)
(0.996445 0.00182171 0)
(0.997403 0.00361171 0)
(0.99798 0.00355702 0)
(0.998713 0.00265172 0)
(0.998051 0.00305438 0)
(0.996966 0.00354415 0)
(0.996325 0.00489217 0)
(0.996029 0.00711378 0)
(0.999876 -0.0086637 0)
(0.994427 0.00840291 0)
(1.00135 -0.0053596 0)
(0.996032 -0.00404084 0)
(0.991189 -0.000421839 0)
(0.994736 0.00442301 0)
(0.999621 0.00558662 0)
(1.0027 0.00199883 0)
(1.00143 -0.00119382 0)
(1.00022 -0.00217764 0)
(0.997327 -0.00315608 0)
(0.994677 0.0014784 0)
(0.996526 0.0017958 0)
(0.997471 0.00345355 0)
(0.997932 0.00356873 0)
(0.998692 0.00267919 0)
(0.998106 0.00317577 0)
(0.99708 0.00377056 0)
(0.99656 0.00497704 0)
(0.996341 0.00709524 0)
(0.999912 -0.0084483 0)
(0.99449 0.00806687 0)
(1.00118 -0.00509517 0)
(0.996183 -0.00401778 0)
(0.991416 -0.000283217 0)
(0.994898 0.00413252 0)
(0.999569 0.0054761 0)
(1.00252 0.00185466 0)
(1.0013 -0.00104552 0)
(1.00015 -0.00205042 0)
(0.997456 -0.00298334 0)
(0.994848 0.00146815 0)
(0.996603 0.00177314 0)
(0.997542 0.00328825 0)
(0.997888 0.00359401 0)
(0.998672 0.00271712 0)
(0.998174 0.00327468 0)
(0.997195 0.00400525 0)
(0.996785 0.00505869 0)
(0.996652 0.00704142 0)
(0.999946 -0.00822361 0)
(0.994559 0.00771633 0)
(1.00102 -0.00481737 0)
(0.99634 -0.00400399 0)
(0.991645 -0.000135637 0)
(0.995063 0.00383644 0)
(0.99952 0.0053611 0)
(1.00234 0.00172072 0)
(1.00118 -0.000917296 0)
(1.00008 -0.00190175 0)
(0.997587 -0.0028283 0)
(0.995019 0.00146067 0)
(0.996675 0.0017636 0)
(0.99762 0.00311221 0)
(0.997852 0.00363005 0)
(0.998652 0.00277544 0)
(0.998257 0.003341 0)
(0.997313 0.00423355 0)
(0.996999 0.00515814 0)
(0.996959 0.00696287 0)
(0.999981 -0.00798945 0)
(0.994633 0.00735147 0)
(1.00085 -0.00452664 0)
(0.996502 -0.00399897 0)
(0.991875 1.61722e-05 0)
(0.995229 0.00353906 0)
(0.999473 0.00523792 0)
(1.00216 0.0016048 0)
(1.00107 -0.000811054 0)
(1.00001 -0.00173334 0)
(0.997718 -0.00268779 0)
(0.995194 0.00144988 0)
(0.996741 0.00177467 0)
(0.997704 0.00292611 0)
(0.997826 0.00366479 0)
(0.998632 0.00286131 0)
(0.998352 0.00338162 0)
(0.997441 0.00442868 0)
(0.997199 0.00527805 0)
(0.997258 0.00687156 0)
(1.00001 -0.00774609 0)
(0.994714 0.00697304 0)
(1.00069 -0.00422424 0)
(0.996668 -0.0040015 0)
(0.992107 0.000170784 0)
(0.995396 0.00324521 0)
(0.99943 0.00510216 0)
(1.00197 0.00150872 0)
(1.00096 -0.000729295 0)
(0.999936 -0.00154827 0)
(0.997847 -0.00255019 0)
(0.995374 0.0014318 0)
(0.9968 0.00180953 0)
(0.997794 0.00274003 0)
(0.997815 0.00369169 0)
(0.998609 0.00297124 0)
(0.998458 0.00341158 0)
(0.997581 0.00457853 0)
(0.997386 0.00540837 0)
(0.997544 0.0067751 0)
(1.00005 -0.00749377 0)
(0.994801 0.00658223 0)
(1.00052 -0.0039126 0)
(0.996839 -0.00400961 0)
(0.99234 0.000326662 0)
(0.995563 0.00295789 0)
(0.999391 0.00495039 0)
(1.00179 0.00143332 0)
(1.00085 -0.000671811 0)
(0.99986 -0.00134865 0)
(0.997973 -0.00241363 0)
(0.995559 0.00140006 0)
(0.996854 0.00186817 0)
(0.997888 0.00256132 0)
(0.997821 0.00370666 0)
(0.998585 0.00310406 0)
(0.998569 0.00343811 0)
(0.997734 0.00468635 0)
(0.997562 0.00554283 0)
(0.997815 0.00667996 0)
(1.00008 -0.00723267 0)
(0.994896 0.00618064 0)
(1.00035 -0.00359392 0)
(0.997014 -0.00402141 0)
(0.992576 0.000480232 0)
(0.995728 0.00268187 0)
(0.999356 0.00477965 0)
(1.0016 0.0013825 0)
(1.00075 -0.000638455 0)
(0.999783 -0.00114235 0)
(0.998093 -0.00227307 0)
(0.995751 0.00135071 0)
(0.996902 0.00194689 0)
(0.997985 0.00239675 0)
(0.997849 0.00370102 0)
(0.998559 0.00326347 0)
(0.998681 0.00346673 0)
(0.997904 0.00474797 0)
(0.997729 0.00567161 0)
(0.998065 0.00659747 0)
(1.00011 -0.00696355 0)
(0.994999 0.00576986 0)
(1.00018 -0.00326907 0)
(0.997192 -0.00403641 0)
(0.992814 0.000629807 0)
(0.99589 0.00242036 0)
(0.999327 0.0045863 0)
(1.00142 0.00136143 0)
(1.00065 -0.000628175 0)
(0.999706 -0.0009339 0)
(0.998205 -0.00211917 0)
(0.99595 0.00128369 0)
(0.996947 0.0020433 0)
(0.998081 0.00225847 0)
(0.9979 0.00366201 0)
(0.998534 0.00344307 0)
(0.998788 0.003511 0)
(0.998089 0.00476125 0)
(0.997893 0.0057777 0)
(0.998289 0.00654625 0)
(1.00014 -0.0066869 0)
(0.99511 0.00535162 0)
(1.00001 -0.00294117 0)
(0.997371 -0.00405157 0)
(0.993055 0.000771252 0)
(0.996049 0.00217749 0)
(0.999305 0.00436825 0)
(1.00123 0.00136825 0)
(1.00056 -0.000635829 0)
(0.999632 -0.000730064 0)
(0.998307 -0.00194926 0)
(0.996156 0.0012014 0)
(0.99699 0.00215318 0)
(0.998173 0.00216041 0)
(0.997976 0.00358292 0)
(0.998516 0.00362188 0)
(0.998884 0.00358317 0)
(0.998286 0.00473528 0)
(0.99806 0.00583802 0)
(0.998485 0.00653411 0)
(1.00017 -0.00640282 0)
(0.99523 0.00492735 0)
(0.999836 -0.00261258 0)
(0.997552 -0.00406618 0)
(0.993298 0.000901108 0)
(0.996203 0.00195746 0)
(0.999289 0.00412428 0)
(1.00104 0.00139866 0)
(1.00047 -0.000655742 0)
(0.999562 -0.000536644 0)
(0.998396 -0.00176166 0)
(0.996369 0.00109845 0)
(0.997035 0.00226301 0)
(0.998255 0.00211214 0)
(0.998077 0.00347505 0)
(0.998512 0.00377905 0)
(0.998966 0.00368794 0)
(0.998487 0.00469077 0)
(0.99824 0.00583725 0)
(0.998656 0.00654155 0)
(1.0002 -0.0061121 0)
(0.995358 0.00449886 0)
(0.999666 -0.00228468 0)
(0.997733 -0.00407886 0)
(0.993545 0.00101797 0)
(0.996351 0.00176167 0)
(0.999282 0.00385614 0)
(1.00085 0.00144985 0)
(1.00039 -0.00068218 0)
(0.999498 -0.000362068 0)
(0.998472 -0.00154721 0)
(0.996588 0.00097818 0)
(0.997087 0.00236263 0)
(0.998326 0.00211568 0)
(0.998196 0.00335181 0)
(0.998526 0.00389401 0)
(0.999035 0.00382059 0)
(0.998685 0.00465797 0)
(0.998434 0.00578037 0)
(0.998814 0.00653095 0)
(1.00022 -0.00581592 0)
(0.995495 0.00406879 0)
(0.999497 -0.00195945 0)
(0.997914 -0.00408728 0)
(0.993793 0.00112112 0)
(0.99649 0.00159303 0)
(0.999285 0.00356496 0)
(1.00066 0.00151799 0)
(1.0003 -0.000706125 0)
(0.999443 -0.000217865 0)
(0.998532 -0.00129818 0)
(0.996808 0.000856708 0)
(0.997151 0.00244245 0)
(0.998382 0.00217529 0)
(0.998327 0.00323219 0)
(0.998565 0.00395729 0)
(0.999096 0.00395502 0)
(0.998869 0.00465823 0)
(0.998636 0.0056949 0)
(0.99897 0.00647401 0)
(1.00024 -0.0055149 0)
(0.995641 0.0036396 0)
(0.999329 -0.00163857 0)
(0.998092 -0.00409033 0)
(0.994044 0.00120571 0)
(0.996619 0.00145998 0)
(0.999298 0.00324875 0)
(1.00047 0.00159742 0)
(1.00022 -0.00071657 0)
(0.9994 -0.000108678 0)
(0.998578 -0.00101962 0)
(0.997026 0.000744729 0)
(0.99723 0.00248174 0)
(0.998427 0.00228298 0)
(0.998462 0.00313498 0)
(0.998628 0.00397864 0)
(0.999157 0.00406174 0)
(0.999039 0.00467782 0)
(0.998836 0.0056219 0)
(0.999125 0.00638307 0)
(1.00026 -0.00520952 0)
(0.995796 0.00321241 0)
(0.999163 -0.00132352 0)
(0.998268 -0.00408727 0)
(0.994299 0.00126772 0)
(0.996734 0.0013614 0)
(0.999319 0.00291341 0)
(1.00028 0.00168503 0)
(1.00012 -0.00070565 0)
(0.999372 -4.43373e-05 0)
(0.99861 -0.000717272 0)
(0.997236 0.00066035 0)
(0.997329 0.00246901 0)
(0.998463 0.00241597 0)
(0.998592 0.00306958 0)
(0.998709 0.00396722 0)
(0.999222 0.00414548 0)
(0.9992 0.00468549 0)
(0.999031 0.00556324 0)
(0.999273 0.0062951 0)
(1.00028 -0.00490117 0)
(0.995959 0.00278865 0)
(0.998999 -0.00101662 0)
(0.99844 -0.00407651 0)
(0.994558 0.00130472 0)
(0.996835 0.00129832 0)
(0.99935 0.00256326 0)
(1.00011 0.00176958 0)
(1.00002 -0.000660287 0)
(0.999359 -2.90545e-05 0)
(0.998635 -0.00040492 0)
(0.99743 0.000625666 0)
(0.997447 0.00240652 0)
(0.998498 0.00254871 0)
(0.998714 0.00304691 0)
(0.998807 0.00392709 0)
(0.999292 0.00420846 0)
(0.999353 0.00468435 0)
(0.999226 0.00548759 0)
(0.999415 0.00621391 0)
(1.0003 -0.00459046 0)
(0.99613 0.00237039 0)
(0.998838 -0.00072075 0)
(0.998606 -0.00405606 0)
(0.994823 0.00131074 0)
(0.996918 0.00127305 0)
(0.999386 0.00220274 0)
(0.999939 0.00183679 0)
(0.999909 -0.000567571 0)
(0.999361 -5.88929e-05 0)
(0.998658 -9.71525e-05 0)
(0.997602 0.000659127 0)
(0.99758 0.00230933 0)
(0.998539 0.00265528 0)
(0.998823 0.00307311 0)
(0.998914 0.00388075 0)
(0.999369 0.00423484 0)
(0.999494 0.00468639 0)
(0.999418 0.0053977 0)
(0.999561 0.00610718 0)
(1.00031 -0.00427844 0)
(0.99631 0.00195778 0)
(0.998681 -0.000434411 0)
(0.998764 -0.00402396 0)
(0.995096 0.00128137 0)
(0.996985 0.00128746 0)
(0.999426 0.00183896 0)
(0.999789 0.00187972 0)
(0.999782 -0.000419965 0)
(0.999376 -0.000118997 0)
(0.99869 0.000181428 0)
(0.99775 0.000766943 0)
(0.997721 0.00220701 0)
(0.998594 0.00272035 0)
(0.998922 0.00312996 0)
(0.999021 0.00385339 0)
(0.999454 0.00422431 0)
(0.999629 0.00467422 0)
(0.9996 0.00531829 0)
(0.999718 0.00596512 0)
(1.00031 -0.00396565 0)
(0.996499 0.0015534 0)
(0.998528 -0.000164168 0)
(0.998912 -0.00397002 0)
(0.995378 0.00121193 0)
(0.997035 0.00134471 0)
(0.999466 0.00148411 0)
(0.999659 0.00188617 0)
(0.999639 -0.000218785 0)
(0.999396 -0.000189169 0)
(0.998738 0.000399615 0)
(0.997875 0.000933374 0)
(0.997861 0.00212372 0)
(0.998666 0.00273611 0)
(0.999018 0.00318842 0)
(0.999121 0.00385237 0)
(0.99954 0.00419776 0)
(0.999763 0.00462691 0)
(0.999771 0.0052489 0)
(0.999877 0.00581868 0)
(1.00032 -0.00365462 0)
(0.996695 0.00116078 0)
(0.998383 8.99907e-05 0)
(0.999047 -0.00389127 0)
(0.99567 0.00109828 0)
(0.997069 0.00143603 0)
(0.999501 0.00115534 0)
(0.999556 0.00184131 0)
(0.999482 1.68883e-05 0)
(0.999415 -0.000247278 0)
(0.998806 0.000541485 0)
(0.997983 0.00113277 0)
(0.997988 0.00207937 0)
(0.998752 0.00270644 0)
(0.999119 0.00322421 0)
(0.999215 0.0038733 0)
(0.999619 0.00418517 0)
(0.999896 0.00454453 0)
(0.999938 0.00515785 0)
(1.00003 0.00568647 0)
(1.00032 -0.00334638 0)
(0.996899 0.000781535 0)
(0.998245 0.000322694 0)
(0.999166 -0.00378133 0)
(0.995974 0.00093867 0)
(0.997091 0.00154961 0)
(0.999527 0.000864624 0)
(0.999481 0.00174209 0)
(0.999316 0.000279177 0)
(0.999422 -0.000268392 0)
(0.998897 0.000600072 0)
(0.998084 0.00133761 0)
(0.998097 0.00208958 0)
(0.998846 0.00265635 0)
(0.999232 0.00322684 0)
(0.999311 0.00389652 0)
(0.999683 0.00420116 0)
(1.00002 0.00445641 0)
(1.00011 0.00502357 0)
(1.00019 0.00554846 0)
(1.00031 -0.00304061 0)
(0.99711 0.000417951 0)
(0.998118 0.000528718 0)
(0.999267 -0.00363593 0)
(0.996289 0.00073086 0)
(0.997104 0.00167337 0)
(0.999538 0.000630693 0)
(0.999437 0.00157927 0)
(0.999148 0.000563649 0)
(0.999409 -0.000224585 0)
(0.999009 0.000594761 0)
(0.998189 0.00152127 0)
(0.998184 0.00215765 0)
(0.998939 0.0026103 0)
(0.999359 0.00319552 0)
(0.999415 0.00389873 0)
(0.999734 0.0042358 0)
(1.00012 0.00439871 0)
(1.00027 0.0048599 0)
(1.00035 0.00537587 0)
(1.0003 -0.00274207 0)
(0.997328 7.54109e-05 0)
(0.998005 0.000707595 0)
(0.999346 -0.00345147 0)
(0.996616 0.000478876 0)
(0.997116 0.00179246 0)
(0.999527 0.000465238 0)
(0.999426 0.00136481 0)
(0.998991 0.000832315 0)
(0.999368 -0.000110526 0)
(0.999133 0.000553596 0)
(0.99831 0.00165986 0)
(0.998253 0.00227113 0)
(0.999019 0.00258408 0)
(0.999495 0.00313014 0)
(0.999536 0.00387085 0)
(0.999783 0.00426489 0)
(1.00018 0.00437908 0)
(1.00042 0.00470833 0)
(1.00053 0.00516725 0)
(1.00029 -0.00245073 0)
(0.99755 -0.000241584 0)
(0.997908 0.000847782 0)
(0.999401 -0.00322306 0)
(0.996952 0.000202219 0)
(0.997131 0.00188787 0)
(0.999491 0.000374592 0)
(0.999444 0.00112959 0)
(0.998854 0.00105634 0)
(0.999298 6.20528e-05 0)
(0.999262 0.000499439 0)
(0.998454 0.00173748 0)
(0.99831 0.00241102 0)
(0.999077 0.00259482 0)
(0.999634 0.00304326 0)
(0.999677 0.00380955 0)
(0.999839 0.00427317 0)
(1.00023 0.00437451 0)
(1.00053 0.00459491 0)
(1.00069 0.00495754 0)
(1.00028 -0.00217046 0)
(0.997776 -0.000527475 0)
(0.997831 0.000949136 0)
(0.99943 -0.00295294 0)
(0.997292 -8.18185e-05 0)
(0.99716 0.00194096 0)
(0.999428 0.000361555 0)
(0.999483 0.000887035 0)
(0.998745 0.00122872 0)
(0.999199 0.000292247 0)
(0.999383 0.00046192 0)
(0.998627 0.00174479 0)
(0.998367 0.00255004 0)
(0.999106 0.00265226 0)
(0.999763 0.00295752 0)
(0.999839 0.00371005 0)
(0.999909 0.0042607 0)
(1.00025 0.00437329 0)
(1.0006 0.00450081 0)
(1.00082 0.0047786 0)
(1.00026 -0.00190189 0)
(0.998003 -0.000782121 0)
(0.997776 0.0010088 0)
(0.999434 -0.00264079 0)
(0.997632 -0.000365423 0)
(0.997207 0.00194014 0)
(0.99934 0.00041444 0)
(0.999536 0.000656114 0)
(0.998675 0.00133433 0)
(0.999079 0.000557849 0)
(0.999481 0.000460798 0)
(0.998827 0.00168663 0)
(0.998439 0.00265834 0)
(0.999108 0.00275501 0)
(0.99987 0.00289494 0)
(1.00002 0.00356986 0)
(1 0.00421179 0)
(1.00027 0.00438453 0)
(1.00065 0.0044166 0)
(1.00091 0.0046196 0)
(1.00024 -0.00164708 0)
(0.998229 -0.000999574 0)
(0.997748 0.00102107 0)
(0.999414 -0.00229735 0)
(0.997963 -0.000634929 0)
(0.99728 0.00187505 0)
(0.999231 0.000516439 0)
(0.999592 0.000459193 0)
(0.998647 0.00137685 0)
(0.998948 0.000835987 0)
(0.999545 0.000506942 0)
(0.999046 0.00158279 0)
(0.998542 0.00271629 0)
(0.99909 0.00288781 0)
(0.999939 0.00287798 0)
(1.0002 0.00340708 0)
(1.00013 0.00410051 0)
(1.00028 0.00438989 0)
(1.00066 0.00436628 0)
(1.00098 0.00446283 0)
(1.00021 -0.00141159 0)
(0.99845 -0.00117192 0)
(0.997749 0.000987343 0)
(0.999371 -0.00193953 0)
(0.998279 -0.000872314 0)
(0.997383 0.00175025 0)
(0.999109 0.000650929 0)
(0.999644 0.000304958 0)
(0.998663 0.00136524 0)
(0.998815 0.00111174 0)
(0.999567 0.000609076 0)
(0.999274 0.00145699 0)
(0.998685 0.00270753 0)
(0.999067 0.00302036 0)
(0.999961 0.00291378 0)
(1.00037 0.00326242 0)
(1.0003 0.00393056 0)
(1.00031 0.00434656 0)
(1.00063 0.00435744 0)
(1.00101 0.00432814 0)
(1.00019 -0.00119235 0)
(0.998665 -0.00130577 0)
(0.997778 0.00091209 0)
(0.99931 -0.00157567 0)
(0.998572 -0.0010587 0)
(0.997519 0.00157291 0)
(0.998979 0.00079963 0)
(0.999682 0.000203576 0)
(0.998723 0.00130038 0)
(0.998694 0.00136411 0)
(0.999542 0.000772673 0)
(0.999491 0.00134075 0)
(0.998873 0.00262456 0)
(0.999059 0.00312468 0)
(0.999942 0.00299098 0)
(1.0005 0.00316191 0)
(1.00049 0.00373199 0)
(1.0004 0.00422871 0)
(1.0006 0.0043462 0)
(1.00098 0.00424635 0)
(1.00016 -0.000994412 0)
(0.998869 -0.00139387 0)
(0.997837 0.000798989 0)
(0.999236 -0.00122298 0)
(0.998834 -0.00117872 0)
(0.997686 0.00135352 0)
(0.998853 0.00093725 0)
(0.999701 0.000159377 0)
(0.998821 0.00119645 0)
(0.998601 0.00157332 0)
(0.999474 0.000988049 0)
(0.999679 0.00126219 0)
(0.999102 0.00247538 0)
(0.999086 0.00317655 0)
(0.999893 0.00309231 0)
(1.00057 0.00311011 0)
(1.00067 0.00354678 0)
(1.00052 0.0040526 0)
(1.00059 0.00427763 0)
(1.00092 0.00420182 0)
(1.00013 -0.000818359 0)
(0.999059 -0.00143879 0)
(0.997924 0.000659523 0)
(0.999156 -0.000893663 0)
(0.999062 -0.00123612 0)
(0.997881 0.00111166 0)
(0.99874 0.00105341 0)
(0.999697 0.000163864 0)
(0.998949 0.00106563 0)
(0.998547 0.00172995 0)
(0.999372 0.00123421 0)
(0.999819 0.00123889 0)
(0.999355 0.00228839 0)
(0.999162 0.00315849 0)
(0.999833 0.00319036 0)
(1.0006 0.00309857 0)
(1.00082 0.00339242 0)
(1.00067 0.00385771 0)
(1.00061 0.00414534 0)
(1.00084 0.00414742 0)
(1.00011 -0.00066247 0)
(0.999234 -0.00144613 0)
(0.998037 0.000501759 0)
(0.999077 -0.000594594 0)
(0.999251 -0.00122741 0)
(0.998099 0.000852309 0)
(0.998646 0.00114229 0)
(0.999667 0.000219288 0)
(0.999099 0.000919494 0)
(0.998542 0.00182097 0)
(0.999248 0.0014934 0)
(0.9999 0.00128227 0)
(0.999615 0.00209712 0)
(0.999295 0.00306815 0)
(0.999781 0.00326472 0)
(1.00058 0.00312592 0)
(1.00093 0.00326785 0)
(1.00082 0.00366647 0)
(1.00067 0.00397886 0)
(1.00078 0.00404466 0)
(1.00008 -0.000530196 0)
(0.999391 -0.00141281 0)
(0.998172 0.000334026 0)
(0.999005 -0.000339895 0)
(0.999399 -0.00115761 0)
(0.998332 0.000597629 0)
(0.998584 0.00118619 0)
(0.99961 0.000318513 0)
(0.999257 0.000781651 0)
(0.998593 0.00183034 0)
(0.999122 0.00173968 0)
(0.999914 0.00139796 0)
(0.999856 0.00193505 0)
(0.999482 0.0028994 0)
(0.999761 0.00328745 0)
(1.00052 0.00317807 0)
(1.001 0.00318768 0)
(1.00096 0.00348641 0)
(1.00075 0.00381337 0)
(1.00074 0.00390741 0)
(1.00006 -0.000418465 0)
(0.999529 -0.00134927 0)
(0.998325 0.000167429 0)
(0.998945 -0.000129789 0)
(0.999507 -0.00104487 0)
(0.998569 0.00036605 0)
(0.998558 0.00118692 0)
(0.999534 0.000444175 0)
(0.999408 0.000670476 0)
(0.998699 0.00176316 0)
(0.999018 0.00194128 0)
(0.999869 0.00156902 0)
(1.00005 0.00183779 0)
(0.999705 0.00268514 0)
(0.999797 0.00323143 0)
(1.00045 0.00321651 0)
(1.00101 0.00315335 0)
(1.00108 0.00332081 0)
(1.00085 0.00364286 0)
(1.00073 0.00376933 0)
(1.00004 -0.000326565 0)
(0.999647 -0.00126003 0)
(0.998491 1.20007e-05 0)
(0.998904 2.92445e-05 0)
(0.999578 -0.000894647 0)
(0.998805 0.000162456 0)
(0.998571 0.00114779 0)
(0.999444 0.00058944 0)
(0.999538 0.000595314 0)
(0.998854 0.00163654 0)
(0.998956 0.00207762 0)
(0.999783 0.00176159 0)
(1.00017 0.0018052 0)
(0.999935 0.00248024 0)
(0.999888 0.00309483 0)
(1.0004 0.00320727 0)
(1.00097 0.00314367 0)
(1.00116 0.00319206 0)
(1.00095 0.00345223 0)
(1.00073 0.00363184 0)
(1.00002 -0.000253734 0)
(0.999745 -0.00115137 0)
(0.998664 -0.000126907 0)
(0.998884 0.000139698 0)
(0.999616 -0.00072436 0)
(0.999027 6.31253e-06 0)
(0.998627 0.00106334 0)
(0.999351 0.000736316 0)
(0.999634 0.000571401 0)
(0.999046 0.00147116 0)
(0.99895 0.00213249 0)
(0.999673 0.00195098 0)
(1.00023 0.00183723 0)
(1.00014 0.00230577 0)
(1.00002 0.00291379 0)
(1.00038 0.00313189 0)
(1.00092 0.00311624 0)
(1.00118 0.00310805 0)
(1.00105 0.00326231 0)
(1.00076 0.00347773 0)
(1.00001 -0.000196689 0)
(0.999824 -0.00103059 0)
(0.998839 -0.000247248 0)
(0.998887 0.00020696 0)
(0.999629 -0.000545402 0)
(0.999229 -0.000104752 0)
(0.99872 0.000952182 0)
(0.999269 0.00085906 0)
(0.99969 0.000607764 0)
(0.999253 0.00130061 0)
(0.999011 0.00208954 0)
(0.999571 0.00210475 0)
(1.00022 0.00192798 0)
(1.00031 0.00217393 0)
(1.00018 0.00271859 0)
(1.0004 0.00300303 0)
(1.00087 0.00303804 0)
(1.00117 0.00303852 0)
(1.00113 0.00310545 0)
(1.00081 0.00330143 0)
(0.999995 -0.000154399 0)
(0.999884 -0.000902896 0)
(0.99901 -0.000339849 0)
(0.998915 0.000233865 0)
(0.999622 -0.0003675 0)
(0.999405 -0.000171987 0)
(0.998845 0.000824561 0)
(0.999208 0.000950423 0)
(0.999708 0.000683504 0)
(0.999448 0.00116191 0)
(0.999131 0.00196257 0)
(0.999505 0.00219093 0)
(1.00016 0.00203643 0)
(1.00041 0.00211342 0)
(1.00033 0.00252576 0)
(1.00045 0.00284654 0)
(1.00085 0.0029162 0)
(1.00114 0.00294123 0)
(1.00116 0.00298722 0)
(1.00089 0.00312353 0)
(0.999986 -0.000124164 0)
(0.999928 -0.000773972 0)
(0.999173 -0.000403637 0)
(0.998967 0.000230642 0)
(0.999605 -0.000205618 0)
(0.999551 -0.000189574 0)
(0.998995 0.000686887 0)
(0.999179 0.00100441 0)
(0.999698 0.000780858 0)
(0.999613 0.00106775 0)
(0.999292 0.00179918 0)
(0.999494 0.00218833 0)
(1.00008 0.00212892 0)
(1.00044 0.00211079 0)
(1.00046 0.00237092 0)
(1.00052 0.00267055 0)
(1.00083 0.00277638 0)
(1.00113 0.00280276 0)
(1.00118 0.00287043 0)
(1.00096 0.00296951 0)
(0.999981 -0.000103779 0)
(0.999957 -0.000648138 0)
(0.999322 -0.000440615 0)
(0.999039 0.000206234 0)
(0.999586 -6.33498e-05 0)
(0.999664 -0.00017005 0)
(0.999159 0.000556058 0)
(0.999188 0.00101067 0)
(0.99967 0.000886412 0)
(0.999738 0.00101618 0)
(0.999471 0.00163698 0)
(0.999538 0.0021037 0)
(1.00002 0.00217771 0)
(1.00043 0.00213095 0)
(1.00054 0.0022713 0)
(1.00059 0.00250214 0)
(1.00083 0.00262776 0)
(1.00112 0.00265277 0)
(1.0012 0.00272137 0)
(1.00102 0.00283563 0)
(0.999978 -9.03554e-05 0)
(0.999975 -0.000531354 0)
(0.999455 -0.00044902 0)
(0.999128 0.000164857 0)
(0.999569 5.6752e-05 0)
(0.999747 -0.000119385 0)
(0.999325 0.000447487 0)
(0.999237 0.000972888 0)
(0.99964 0.000978191 0)
(0.999823 0.00101447 0)
(0.999644 0.00148697 0)
(0.999629 0.0019745 0)
(0.999988 0.00215593 0)
(1.00039 0.0021518 0)
(1.00057 0.00221228 0)
(1.00064 0.00236976 0)
(1.00084 0.00247936 0)
(1.00111 0.0025113 0)
(1.00124 0.00255179 0)
(1.0011 0.0026882 0)
(0.999976 -8.18291e-05 0)
(0.999983 -0.000426136 0)
(0.999569 -0.000432899 0)
(0.999229 0.000115969 0)
(0.999561 0.000150654 0)
(0.999802 -4.7147e-05 0)
(0.999482 0.000366336 0)
(0.999321 0.000904367 0)
(0.999625 0.00103363 0)
(0.999868 0.00105332 0)
(0.999794 0.00136641 0)
(0.999748 0.00182724 0)
(1 0.00207542 0)
(1.00036 0.00213844 0)
(1.00057 0.0021768 0)