/*--------------------------------*- C++ -*----------------------------------*\
| =========                 |                                                 |
| \\      /  F ield         | OpenFOAM: The Open Source CFD Toolbox           |
|  \\    /   O peration     | Version:  2106                                  |
|   \\  /    A nd           | Website:  www.openfoam.com                      |
|    \\/     M anipulation  |                                                 |
\*---------------------------------------------------------------------------*/
FoamFile
{
    version     2.0;
    format      ascii;
    arch        "LSB;label=32;scalar=64";
    class       surfaceScalarField;
    location    "0.415";
    object      phi;
}
// * * * * * * * * * * * * * * * * * * * * * * * * * * * * * * * * * * * * * //

dimensions      [0 3 -1 0 0 0 0];

oriented        oriented;

internalField   nonuniform List<scalar> 
19000
(
1.18665e-06
-9.15521e-07
1.17206e-06
2.25582e-07
1.15556e-06
2.6394e-07
1.14722e-06
2.36754e-07
1.19139e-06
-4.24909e-07
1.21279e-06
-2.12919e-07
1.22191e-06
-3.72755e-07
1.23343e-06
4.36703e-07
1.23198e-06
2.26053e-09
1.20787e-06
4.92425e-07
1.20823e-06
3.66011e-08
1.20689e-06
1.54875e-07
1.22039e-06
-2.08979e-07
1.21485e-06
-6.54856e-08
1.22317e-06
-2.00654e-07
1.21331e-06
-5.22777e-08
1.21881e-06
-5.76337e-08
1.20884e-06
1.4593e-08
1.20629e-06
6.85026e-08
6.11769e-08
1.17942e-06
1.24637e-06
-9.37634e-07
1.23321e-06
2.38749e-07
1.21479e-06
2.82353e-07
1.2101e-06
2.4145e-07
1.25233e-06
-4.67145e-07
1.2739e-06
-2.34486e-07
1.28447e-06
-3.83327e-07
1.29953e-06
4.21651e-07
1.29505e-06
6.73354e-09
1.27804e-06
5.09435e-07
1.27133e-06
4.33152e-08
1.27598e-06
1.5022e-07
1.28013e-06
-2.13128e-07
1.28316e-06
-6.8512e-08
1.28026e-06
-1.97758e-07
1.28407e-06
-5.60792e-08
1.27215e-06
-4.57155e-08
1.28245e-06
4.29138e-09
1.25489e-06
9.60631e-08
5.15383e-08
1.26453e-06
1.30518e-06
-9.60033e-07
1.3031e-06
2.40831e-07
1.28105e-06
3.04404e-07
1.27937e-06
2.43128e-07
1.31356e-06
-5.01337e-07
1.33798e-06
-2.589e-07
1.34797e-06
-3.93315e-07
1.36974e-06
3.99873e-07
1.35987e-06
1.66037e-08
1.35262e-06
5.16691e-07
1.33623e-06
5.97042e-08
1.34306e-06
1.43386e-07
1.33618e-06
-2.06247e-07
1.34397e-06
-7.63048e-08
1.33452e-06
-1.88303e-07
1.34299e-06
-6.45483e-08
1.33104e-06
-3.37698e-08
1.33801e-06
-2.6734e-09
1.32357e-06
1.10501e-07
6.09919e-08
1.31411e-06
1.36316e-06
-9.79089e-07
1.37523e-06
2.28757e-07
1.35175e-06
3.27891e-07
1.35051e-06
2.44362e-07
1.37243e-06
-5.23259e-07
1.39873e-06
-2.85192e-07
1.41052e-06
-4.05109e-07
1.43682e-06
3.73573e-07
1.42547e-06
2.79567e-08
1.42262e-06
5.1954e-07
1.40197e-06
8.0356e-08
1.40341e-06
1.41939e-07
1.39077e-06
-1.93605e-07
1.39599e-06
-8.15262e-08
1.38757e-06
-1.79883e-07
1.39479e-06
-7.17692e-08
1.38923e-06
-2.82051e-08
1.39283e-06
-6.26969e-09
1.38674e-06
1.16585e-07
7.38385e-08
1.3739e-06
1.42118e-06
-9.91917e-07
1.44557e-06
2.04371e-07
1.42443e-06
3.49028e-07
1.42085e-06
2.47948e-07
1.42944e-06
-5.31857e-07
1.4542e-06
-3.09945e-07
1.47093e-06
-4.21842e-07
1.49926e-06
3.45246e-07
1.4906e-06
3.66113e-08
1.48888e-06
5.21265e-07
1.46775e-06
1.01478e-07
1.4624e-06
1.47291e-07
1.44639e-06
-1.7759e-07
1.448e-06
-8.31367e-08
1.44088e-06
-1.72769e-07
1.44791e-06
-7.87939e-08
1.44593e-06
-2.62275e-08
1.44989e-06
-1.02293e-08
1.44721e-06
1.19262e-07
8.58354e-08
1.43522e-06
1.48128e-06
-9.97521e-07
1.51272e-06
1.72932e-07
1.49749e-06
3.64254e-07
1.49037e-06
2.55075e-07
1.4876e-06
-5.29095e-07
1.50739e-06
-3.29728e-07
1.5294e-06
-4.43853e-07
1.55856e-06
3.16081e-07
1.55408e-06
4.10915e-08
1.55351e-06
5.21838e-07
1.53308e-06
1.21905e-07
1.52355e-06
1.56825e-07
1.50493e-06
-1.58975e-07
1.50417e-06
-8.23744e-08
1.49688e-06
-1.65475e-07
1.50417e-06
-8.60835e-08
1.50385e-06
-2.59093e-08
1.50828e-06
-1.46552e-08
1.50837e-06
1.19167e-07
9.71629e-08
1.49704e-06
1.54548e-06
-9.96783e-07
1.57785e-06
1.40561e-07
1.57014e-06
3.71963e-07
1.5606e-06
2.64615e-07
1.55004e-06
-5.18537e-07
1.56317e-06
-3.42853e-07
1.58721e-06
-4.67895e-07
1.6164e-06
2.86888e-07
1.61539e-06
4.21091e-08
1.61707e-06
5.20158e-07
1.59793e-06
1.41045e-07
1.58755e-06
1.67196e-07
1.56758e-06
-1.38999e-07
1.56564e-06
-8.04346e-08
1.55743e-06
-1.57266e-07
1.56419e-06
-9.28412e-08
1.5645e-06
-2.6219e-08
1.56827e-06
-1.84309e-08
1.5707e-06
1.16737e-07
1.07861e-07
1.56e-06
1.61485e-06
-9.91505e-07
1.64331e-06
1.12097e-07
1.64248e-06
3.72798e-07
1.6331e-06
2.73993e-07
1.61844e-06
-5.03877e-07
1.6251e-06
-3.49516e-07
1.64641e-06
-4.892e-07
1.67424e-06
2.59054e-07
1.6753e-06
4.10488e-08
1.67997e-06
5.15486e-07
1.66307e-06
1.57954e-07
1.65457e-06
1.75688e-07
1.6349e-06
-1.19327e-07
1.63274e-06
-7.82777e-08
1.62355e-06
-1.48068e-07
1.6288e-06
-9.80946e-08
1.62885e-06
-2.62728e-08
1.63084e-06
-2.04196e-08
1.63479e-06
1.1279e-07
1.17863e-07
1.62479e-06
1.68941e-06
-9.83336e-07
1.7114e-06
9.00992e-08
1.71553e-06
3.68674e-07
1.70882e-06
2.80699e-07
1.69298e-06
-4.88032e-07
1.6945e-06
-3.51038e-07
1.70927e-06
-5.03966e-07
1.73404e-06
2.34278e-07
1.73592e-06
3.91693e-08
1.74379e-06
5.07619e-07
1.7301e-06
1.71647e-07
1.72518e-06
1.80604e-07
1.70717e-06
-1.01316e-07
1.7055e-06
-7.66066e-08
1.6956e-06
-1.38172e-07
1.69875e-06
-1.0124e-07
1.69797e-06
-2.54955e-08
1.6974e-06
-1.98476e-08
1.70195e-06
1.08242e-07
1.27137e-07
1.69267e-06
1.76864e-06
-9.73257e-07
1.78383e-06
7.49104e-08
1.79092e-06
3.61589e-07
1.78829e-06
2.83323e-07
1.77303e-06
-4.7277e-07
1.77106e-06
-3.49073e-07
1.77769e-06
-5.10596e-07
1.79826e-06
2.13708e-07
1.80002e-06
3.74101e-08
1.81093e-06
4.96714e-07
1.80095e-06
1.81627e-07
1.80021e-06
1.81342e-07
1.78449e-06
-8.55977e-08
1.78364e-06
-7.57515e-08
1.77349e-06
-1.28024e-07
1.7744e-06
-1.02152e-07
1.77271e-06
-2.38005e-08
1.76937e-06
-1.65078e-08
1.77374e-06
1.0387e-07
1.35599e-07
1.76528e-06
1.85215e-06
-9.61661e-07
1.86171e-06
6.53485e-08
1.87029e-06
3.53015e-07
1.87189e-06
2.81721e-07
1.85787e-06
-4.58752e-07
1.8539e-06
-3.45103e-07
1.85288e-06
-5.09569e-07
1.86914e-06
1.97444e-07
1.87018e-06
3.63684e-08
1.88372e-06
4.83179e-07
1.87725e-06
1.88097e-07
1.88037e-06
1.7822e-07
1.86688e-06
-7.21107e-08
1.8668e-06
-7.5664e-08
1.85683e-06
-1.18061e-07
1.85572e-06
-1.01044e-07
1.85342e-06
-2.14935e-08
1.84765e-06
-1.07417e-08
1.85135e-06
1.00173e-07
1.43058e-07
1.84389e-06
1.93985e-06
-9.48671e-07
1.94564e-06
5.95631e-08
1.95481e-06
3.43839e-07
1.95995e-06
2.76587e-07
1.94705e-06
-4.45853e-07
1.94216e-06
-3.4022e-07
1.93516e-06
-5.02566e-07
1.94794e-06
1.84661e-07
1.948e-06
3.63129e-08
1.96362e-06
4.6756e-07
1.95991e-06
1.91804e-07
1.96603e-06
1.72102e-07
1.95432e-06
-6.03986e-08
1.95469e-06
-7.60331e-08
1.94524e-06
-1.08619e-07
1.94244e-06
-9.82371e-08
1.93995e-06
-1.90081e-08
1.93246e-06
-3.24876e-09
1.93523e-06
9.73995e-08
1.49241e-07
1.92905e-06
2.03189e-06
-9.34377e-07
2.03572e-06
5.57405e-08
2.04499e-06
3.34565e-07
2.05269e-06
2.68883e-07
2.04041e-06
-4.3357e-07
2.03529e-06
-3.351e-07
2.02425e-06
-4.91518e-07
2.03478e-06
1.74121e-07
2.03385e-06
3.72502e-08
2.05099e-06
4.50414e-07
2.04911e-06
1.93691e-07
2.05721e-06
1.64001e-07
2.04675e-06
-4.99429e-08
2.04716e-06
-7.64455e-08
2.03846e-06
-9.99134e-08
2.03425e-06
-9.40297e-08
2.03189e-06
-1.66535e-08
2.02347e-06
5.17397e-09
2.02524e-06
9.5629e-08
1.53899e-07
2.02058e-06
2.12852e-06
-9.18895e-07
2.13176e-06
5.24998e-08
2.14083e-06
3.255e-07
2.15027e-06
2.59437e-07
2.13808e-06
-4.21373e-07
2.13308e-06
-3.30103e-07
2.11955e-06
-4.77992e-07
2.129e-06
1.64668e-07
2.12722e-06
3.90354e-08
2.14542e-06
4.32213e-07
2.14454e-06
1.94569e-07
2.15373e-06
1.54809e-07
2.14416e-06
-4.03723e-08
2.14423e-06
-7.65128e-08
2.13637e-06
-9.20505e-08
2.131e-06
-8.86657e-08
2.12886e-06
-1.4508e-08
2.1202e-06
1.38319e-08
2.12099e-06
9.48438e-08
1.56915e-07
2.11797e-06
2.22994e-06
-9.02344e-07
2.23346e-06
4.89788e-08
2.24211e-06
3.16849e-07
2.25276e-06
2.48784e-07
2.24026e-06
-4.08866e-07
2.23554e-06
-3.25387e-07
2.22054e-06
-4.62994e-07
2.22972e-06
1.55489e-07
2.22728e-06
4.14768e-08
2.24619e-06
4.13305e-07
2.24581e-06
1.94949e-07
2.25543e-06
1.45187e-07
2.24658e-06
-3.15226e-08
2.246e-06
-7.59356e-08
2.239e-06
-8.50457e-08
2.23271e-06
-8.23814e-08
2.23063e-06
-1.24204e-08
2.22227e-06
2.21891e-08
2.22214e-06
9.49732e-08
1.58355e-07
2.2207e-06
2.33633e-06
-8.84802e-07
2.34059e-06
4.47253e-08
2.34868e-06
3.08758e-07
2.36027e-06
2.37196e-07
2.34722e-06
-3.95819e-07
2.34285e-06
-3.21013e-07
2.32691e-06
-4.47063e-07
2.33626e-06
1.46141e-07
2.33335e-06
4.43926e-08
2.35271e-06
3.93941e-07
2.35262e-06
1.95043e-07
2.36222e-06
1.35585e-07
2.35409e-06
-2.3389e-08
2.35268e-06
-7.45281e-08
2.34645e-06
-7.88165e-08
2.33951e-06
-7.54387e-08
2.33721e-06
-1.01249e-08
2.32952e-06
2.98807e-08
2.32859e-06
9.59029e-08
1.58438e-07
2.32851e-06
2.4479e-06
-8.66306e-07
2.45309e-06
3.95325e-08
2.46052e-06
3.01326e-07
2.47295e-06
2.24774e-07
2.45925e-06
-3.8212e-07
2.45522e-06
-3.1699e-07
2.43862e-06
-4.30456e-07
2.4483e-06
1.36457e-07
2.44507e-06
4.76202e-08
2.46469e-06
3.74321e-07
2.46489e-06
1.94848e-07
2.47417e-06
1.26302e-07
2.46681e-06
-1.60315e-08
2.46451e-06
-7.22204e-08
2.4589e-06
-7.3213e-08
2.45155e-06
-6.80848e-08
2.44882e-06
-7.39857e-09
2.44197e-06
3.67322e-08
2.44041e-06
9.74656e-08
1.57477e-07
2.44137e-06
2.56485e-06
-8.46858e-07
2.57107e-06
3.33108e-08
2.57778e-06
2.94619e-07
2.59101e-06
2.11541e-07
2.57662e-06
-3.67729e-07
2.57292e-06
-3.13297e-07
2.55578e-06
-4.13309e-07
2.5658e-06
1.2643e-07
2.56242e-06
5.10024e-08
2.58211e-06
3.54637e-07
2.5827e-06
1.94253e-07
2.59147e-06
1.17536e-07
2.58493e-06
-9.49747e-09
2.58176e-06
-6.9053e-08
2.57659e-06
-6.80361e-08
2.56904e-06
-6.05324e-08
2.56579e-06
-4.15667e-09
2.55975e-06
4.27731e-08
2.55779e-06
9.94256e-08
1.55826e-07
2.55944e-06
2.68742e-06
-8.26451e-07
2.69471e-06
2.60173e-08
2.70065e-06
2.8868e-07
2.71469e-06
1.97503e-07
2.69962e-06
-3.52653e-07
2.69621e-06
-3.09891e-07
2.67863e-06
-3.95726e-07
2.68891e-06
1.16144e-07
2.68554e-06
5.43755e-08
2.70509e-06
3.35087e-07
2.70623e-06
1.9311e-07
2.71436e-06
1.09412e-07
2.70864e-06
-3.78012e-09
2.70474e-06
-6.5149e-08
2.69977e-06
-6.30756e-08
2.69218e-06
-5.29374e-08
2.68846e-06
-4.38055e-10
2.68309e-06
4.8146e-08
2.68098e-06
1.01531e-07
1.53803e-07
2.68301e-06
2.81589e-06
-8.05073e-07
2.82428e-06
1.76287e-08
2.82942e-06
2.83534e-07
2.84425e-06
1.82673e-07
2.82853e-06
-3.36933e-07
2.82535e-06
-3.06704e-07
2.80745e-06
-3.77829e-07
2.81786e-06
1.05734e-07
2.81467e-06
5.75629e-08
2.83388e-06
3.15878e-07
2.8357e-06
1.91291e-07
2.84313e-06
1.01979e-07
2.83816e-06
1.1985e-09
2.83368e-06
-6.06695e-08
2.82877e-06
-5.81685e-08
2.8212e-06
-4.53718e-08
2.81712e-06
3.64995e-09
2.81227e-06
5.29899e-08
2.81022e-06
1.03585e-07
1.51645e-07
2.81238e-06
2.95054e-06
-7.82717e-07
2.96003e-06
8.13431e-09
2.96438e-06
2.79192e-07
2.97996e-06
1.67088e-07
2.96367e-06
-3.20644e-07
2.96061e-06
-3.03643e-07
2.94255e-06
-3.5977e-07
2.95291e-06
9.53743e-08
2.9501e-06
6.03744e-08
2.96877e-06
2.97204e-07
2.97134e-06
1.8872e-07
2.97811e-06
9.52116e-08
2.97374e-06
5.5723e-09
2.96884e-06
-5.57676e-08
2.9639e-06
-5.32304e-08
2.95636e-06
-3.78301e-08
2.95202e-06
7.991e-09
2.94763e-06
5.73754e-08
2.94574e-06
1.05472e-07
1.49489e-07
2.9479e-06
3.09167e-06
-7.59382e-07
3.10227e-06
-2.46398e-09
3.10582e-06
2.75646e-07
3.12209e-06
1.50814e-07
3.10534e-06
-3.03894e-07
3.10228e-06
-3.00583e-07
3.08425e-06
-3.41737e-07
3.09435e-06
8.52679e-08
3.09212e-06
6.26133e-08
3.11009e-06
2.7923e-07
3.11341e-06
1.85404e-07
3.11961e-06
8.90055e-08
3.11567e-06
9.51178e-09
3.11047e-06
-5.05622e-08
3.10548e-06
-4.82414e-08
3.09792e-06
-3.02702e-08
3.0934e-06
1.25055e-08
3.08949e-06
6.12909e-08
3.08782e-06
1.07141e-07
1.47395e-07
3.08991e-06
3.2396e-06
-7.35076e-07
3.25129e-06
-1.41508e-08
3.25407e-06
2.72868e-07
3.27094e-06
1.33945e-07
3.25387e-06
-2.86822e-07
3.25065e-06
-2.97369e-07
3.23287e-06
-3.23956e-07
3.2425e-06
7.56371e-08
3.24102e-06
6.40915e-08
3.25819e-06
2.62065e-07
3.26216e-06
1.81429e-07
3.26795e-06
8.32163e-08
3.26429e-06
1.31679e-08
3.25884e-06
-4.51032e-08
3.25382e-06
-4.32261e-08
3.24622e-06
-2.26748e-08
3.24155e-06
1.71854e-08
3.23816e-06
6.46744e-08
3.23675e-06
1.08557e-07
1.45381e-07
3.23876e-06
3.39467e-06
-7.09812e-07
3.40741e-06
-2.6896e-08
3.40947e-06
2.70808e-07
3.42681e-06
1.1661e-07
3.40959e-06
-2.69606e-07
3.40604e-06
-2.93813e-07
3.38875e-06
-3.06674e-07
3.39768e-06
6.67093e-08
3.39711e-06
6.46588e-08
3.41343e-06
2.45749e-07
3.41792e-06
1.76944e-07
3.42343e-06
7.7704e-08
3.41996e-06
1.66394e-08
3.41422e-06
-3.9369e-08
3.40923e-06
-3.8234e-08
3.40167e-06
-1.51102e-08
3.39675e-06
2.20993e-08
3.39394e-06
6.7489e-08
3.39284e-06
1.0965e-07
1.43457e-07
3.39477e-06
3.55721e-06
-6.83614e-07
3.57097e-06
-4.06535e-08
3.57239e-06
2.69393e-07
3.59002e-06
9.8974e-08
3.57287e-06
-2.52456e-07
3.56876e-06
-2.89703e-07
3.55225e-06
-2.90161e-07
3.56025e-06
5.87066e-08
3.56067e-06
6.42379e-08
3.57619e-06
2.30228e-07
3.581e-06
1.72136e-07
3.58634e-06
7.23596e-08
3.58304e-06
1.99452e-08
3.57693e-06
-3.32646e-08
3.57202e-06
-3.33239e-08
3.56463e-06
-7.71263e-09
3.55941e-06
2.73124e-08
3.5571e-06
6.98013e-08
3.55646e-06
1.10295e-07
1.41623e-07
3.55829e-06
3.7276e-06
-6.56512e-07
3.74231e-06
-5.536e-08
3.74318e-06
2.68524e-07
3.76092e-06
8.12327e-08
3.74408e-06
-2.35613e-07
3.73918e-06
-2.84804e-07
3.72371e-06
-2.7469e-07
3.73059e-06
5.18245e-08
3.732e-06
6.28336e-08
3.74686e-06
2.15367e-07
3.75178e-06
1.6721e-07
3.75699e-06
6.71476e-08
3.75394e-06
2.30036e-08
3.74732e-06
-2.66536e-08
3.74253e-06
-2.85299e-08
3.73547e-06
-6.4783e-10
3.72996e-06
3.28183e-08
3.72797e-06
7.17883e-08
3.72791e-06
1.10361e-07
1.39825e-07
3.7297e-06
3.90623e-06
-6.2855e-07
3.9218e-06
-7.09338e-08
3.92225e-06
2.68078e-07
3.93986e-06
6.36143e-08
3.9236e-06
-2.19347e-07
3.91767e-06
-2.78872e-07
3.90349e-06
-2.60517e-07
3.90914e-06
4.61791e-08
3.91142e-06
6.05547e-08
3.92579e-06
2.00993e-07
3.93067e-06
1.62332e-07
3.93569e-06
6.21273e-08
3.93302e-06
2.56754e-08
3.92581e-06
-1.94462e-08
3.92106e-06
-2.37824e-08
3.91452e-06
5.89399e-09
3.90883e-06
3.85063e-08
3.90693e-06
7.36889e-08
3.90749e-06
1.098e-07
1.37921e-07
3.9094e-06
4.09348e-06
-5.9978e-07
4.10982e-06
-8.72729e-08
4.10999e-06
2.67905e-07
4.12723e-06
4.63725e-08
4.11182e-06
-2.03937e-07
4.10463e-06
-2.71674e-07
4.09193e-06
-2.47823e-07
4.09636e-06
4.17498e-08
4.0993e-06
5.76152e-08
4.11337e-06
1.86923e-07
4.11809e-06
1.57614e-07
4.12279e-06
5.74296e-08
4.12066e-06
2.78034e-08
4.11283e-06
-1.16198e-08
4.10799e-06
-1.8939e-08
4.10214e-06
1.17452e-08
4.09647e-06
4.41788e-08
4.09444e-06
7.57163e-08
4.09553e-06
1.08713e-07
1.35706e-07
4.09774e-06
4.28979e-06
-5.70267e-07
4.30677e-06
-1.04254e-07
4.30684e-06
2.67835e-07
4.32343e-06
2.97781e-08
4.30916e-06
-1.89668e-07
4.30049e-06
-2.63004e-07
4.28937e-06
-2.36698e-07
4.29273e-06
3.83882e-08
4.29604e-06
5.43021e-08
4.30998e-06
1.72984e-07
4.31447e-06
1.53123e-07
4.31868e-06
5.32243e-08
4.31722e-06
2.92639e-08
4.30885e-06
-3.25261e-09
4.30372e-06
-1.38046e-08
4.29868e-06
1.67869e-08
4.29325e-06
4.96057e-08
4.29099e-06
7.79712e-08
4.29237e-06
1.07337e-07
1.32998e-07
4.29508e-06
4.49559e-06
-5.40085e-07
4.51307e-06
-1.21731e-07
4.51323e-06
2.67677e-07
4.5289e-06
1.41102e-08
4.51604e-06
-1.76814e-07
4.50577e-06
-2.52729e-07
4.49617e-06
-2.27105e-07
4.49871e-06
3.58486e-08
4.50207e-06
5.09463e-08
4.51603e-06
1.59025e-07
4.52027e-06
1.4888e-07
4.5238e-06
4.96946e-08
4.52307e-06
2.99952e-08
4.51437e-06
5.45042e-09
4.50873e-06
-8.16927e-09
4.50452e-06
2.09982e-08
4.49957e-06
5.45601e-08
4.49712e-06
8.04217e-08
4.4985e-06
1.05957e-07
1.29753e-07
4.50174e-06
4.71135e-06
-5.09324e-07
4.72916e-06
-1.39538e-07
4.72961e-06
2.67226e-07
4.74408e-06
-3.54281e-10
4.7329e-06
-1.65634e-07
4.72096e-06
-2.40791e-07
4.71274e-06
-2.18891e-07
4.71478e-06
3.38152e-08
4.71783e-06
4.78983e-08
4.73193e-06
1.44919e-07
4.73595e-06
1.44864e-07
4.73858e-06
4.70625e-08
4.73864e-06
2.99326e-08
4.7299e-06
1.41952e-08
4.72355e-06
-1.8192e-09
4.72008e-06
2.4466e-08
4.7158e-06
5.88345e-08
4.71329e-06
8.29345e-08
4.71446e-06
1.04792e-07
1.26115e-07
4.71809e-06
4.93756e-06
-4.78087e-07
4.95551e-06
-1.57488e-07
4.95646e-06
2.66273e-07
4.96947e-06
-1.33575e-08
4.96018e-06
-1.56345e-07
4.94659e-06
-2.272e-07
4.93952e-06
-2.11825e-07
4.94141e-06
3.19309e-08
4.94379e-06
4.55181e-08
4.95813e-06
1.30572e-07
4.96198e-06
1.41015e-07
4.96347e-06
4.5572e-08
4.96436e-06
2.9047e-08
4.95594e-06
2.26114e-08
4.94873e-06
5.39693e-09
4.94581e-06
2.73843e-08
4.94238e-06
6.22644e-08
4.93997e-06
8.53415e-08
4.94085e-06
1.03916e-07
1.22353e-07
4.94461e-06
5.17472e-06
-4.46489e-07
5.19261e-06
-1.75379e-07
5.19427e-06
2.64609e-07
5.20559e-06
-2.46773e-08
5.19832e-06
-1.49078e-07
5.18319e-06
-2.12068e-07
5.17697e-06
-2.05607e-07
5.1791e-06
2.98093e-08
5.18046e-06
4.41571e-08
5.19507e-06
1.15963e-07
5.19892e-06
1.37162e-07
5.19903e-06
4.54651e-08
5.2006e-06
2.74698e-08
5.19297e-06
3.02441e-08
5.18492e-06
1.34443e-08
5.18219e-06
3.01128e-08
5.17971e-06
6.47453e-08
5.1776e-06
8.74549e-08
5.17824e-06
1.03278e-07
1.18742e-07
5.18185e-06
5.42336e-06
-4.14661e-07
5.44097e-06
-1.92988e-07
5.44355e-06
2.62029e-07
5.45299e-06
-3.41214e-08
5.44781e-06
-1.43895e-07
5.43132e-06
-1.95573e-07
5.4256e-06
-1.99889e-07
5.42836e-06
2.70521e-08
5.4284e-06
4.41129e-08
5.44314e-06
1.01227e-07
5.4474e-06
1.32898e-07
5.44578e-06
4.70913e-08
5.44777e-06
2.5479e-08
5.44143e-06
3.658e-08
5.43277e-06
2.21046e-08
5.42981e-06
3.3068e-08
5.42826e-06
6.62965e-08
5.42663e-06
8.90863e-08
5.42715e-06
1.02761e-07
1.15462e-07
5.43043e-06
5.68404e-06
-3.82748e-07
5.70114e-06
-2.10086e-07
5.70483e-06
2.58337e-07
5.71223e-06
-4.15178e-08
5.70916e-06
-1.40821e-07
5.69153e-06
-1.77948e-07
5.68591e-06
-1.94271e-07
5.68971e-06
2.32576e-08
5.68826e-06
4.55638e-08
5.70272e-06
8.67691e-08
5.70795e-06
1.27663e-07
5.70449e-06
5.05502e-08
5.70628e-06
2.36876e-08
5.70174e-06
4.1126e-08
5.69287e-06
3.09744e-08
5.68934e-06
3.65976e-08
5.68853e-06
6.71041e-08
5.68754e-06
9.00739e-08
5.68808e-06
1.02221e-07
1.12571e-07
5.69097e-06
5.95735e-06
-3.50909e-07
5.9737e-06
-2.26429e-07
5.9787e-06
2.53337e-07
5.98387e-06
-4.66886e-08
5.9829e-06
-1.39859e-07
5.96445e-06
-1.59495e-07
5.95846e-06
-1.8828e-07
5.96366e-06
1.8058e-08
5.96075e-06
4.84743e-08
5.97426e-06
7.32567e-08
5.98101e-06
1.20913e-07
5.97608e-06
5.54877e-08
5.97685e-06
2.29116e-08
5.97422e-06
4.37545e-08
5.96577e-06
3.94265e-08
5.9615e-06
4.08699e-08
5.96112e-06
6.74853e-08
5.96082e-06
9.03755e-08
5.96155e-06
1.01488e-07
1.09995e-07
5.96413e-06
6.2439e-06
-3.19318e-07
6.25923e-06
-2.41757e-07
6.26573e-06
2.46837e-07
6.26849e-06
-4.94533e-08
6.26962e-06
-1.40988e-07
6.25073e-06
-1.40607e-07
6.24382e-06
-1.81368e-07
6.2507e-06
1.11724e-08
6.24665e-06
5.25293e-08
6.25833e-06
6.15728e-08
6.26698e-06
1.12268e-07
6.26126e-06
6.12092e-08
6.26031e-06
2.38528e-08
6.25935e-06
4.47224e-08
6.25193e-06
4.68394e-08
6.24704e-06
4.57675e-08
6.24672e-06
6.7797e-08
6.247e-06
9.00956e-08
6.24808e-06
1.00408e-07
1.07545e-07
6.25053e-06
6.54432e-06
-2.88164e-07
6.55836e-06
-2.55796e-07
6.56654e-06
2.3865e-07
6.56673e-06
-4.96379e-08
6.56986e-06
-1.44125e-07
6.55107e-06
-1.21815e-07
6.54264e-06
-1.72932e-07
6.55127e-06
2.53644e-09
6.54671e-06
5.70881e-08
6.55559e-06
5.26949e-08
6.56618e-06
1.01679e-07
6.56071e-06
6.66788e-08
6.55761e-06
2.69585e-08
6.55769e-06
4.46366e-08
6.55181e-06
5.27223e-08
6.54659e-06
5.09824e-08
6.54609e-06
6.82957e-08
6.54679e-06
8.9398e-08
6.54822e-06
9.89782e-08
1.04968e-07
6.5508e-06
6.85928e-06
-2.57653e-07
6.87173e-06
-2.68249e-07
6.88178e-06
2.28599e-07
6.87926e-06
-4.71185e-08
6.8842e-06
-1.49065e-07
6.8662e-06
-1.03815e-07
6.85564e-06
-1.62373e-07
6.86582e-06
-7.6396e-09
6.86166e-06
6.1245e-08
6.86701e-06
4.73491e-08
6.87903e-06
8.96576e-08
6.87488e-06
7.08269e-08
6.86977e-06
3.20702e-08
6.86999e-06
4.4414e-08
6.86586e-06
5.68553e-08
6.86077e-06
5.60754e-08
6.85997e-06
6.90883e-08
6.86095e-06
8.84238e-08
6.86257e-06
9.73528e-08
1.02081e-07
6.86546e-06
7.18949e-06
-2.28004e-07
7.20004e-06
-2.78799e-07
7.21212e-06
2.16517e-07
7.20684e-06
-4.1838e-08
7.21323e-06
-1.55457e-07
7.19686e-06
-8.74409e-08
7.18367e-06
-1.49188e-07
7.19491e-06
-1.88816e-08
7.1921e-06
6.4054e-08
7.19376e-06
4.56893e-08
7.2061e-06
7.73233e-08
7.20418e-06
7.27461e-08
7.19766e-06
3.85884e-08
7.19715e-06
4.49274e-08
7.19464e-06
5.93619e-08
7.19016e-06
6.05602e-08
7.18906e-06
7.01791e-08
7.19021e-06
8.72784e-08
7.19188e-06
9.56867e-08
9.89313e-08
7.19503e-06
7.53567e-06
-1.99448e-07
7.54398e-06
-2.87109e-07
7.55825e-06
2.02252e-07
7.55027e-06
-3.38623e-08
7.55755e-06
-1.62737e-07
7.54371e-06
-7.35984e-08
7.52768e-06
-1.33162e-07
7.53913e-06
-3.03288e-08
7.53865e-06
6.45335e-08
7.5369e-06
4.74417e-08
7.54819e-06
6.6028e-08
7.54896e-06
7.19836e-08
7.54196e-06
4.55869e-08
7.54016e-06
4.67239e-08
7.53885e-06
6.06771e-08
7.53534e-06
6.40676e-08
7.53409e-06
7.14246e-08
7.53532e-06
8.60506e-08
7.53699e-06
9.40177e-08
9.57965e-08
7.54012e-06
7.89859e-06
-1.72225e-07
7.90432e-06
-2.92838e-07
7.92091e-06
1.85654e-07
7.91045e-06
-2.34012e-08
7.9178e-06
-1.7008e-07
7.90736e-06
-6.31594e-08
7.88871e-06
-1.14519e-07
7.89919e-06
-4.08049e-08
7.90169e-06
6.2034e-08
7.8974e-06
5.17323e-08
7.90638e-06
5.70478e-08
7.90966e-06
6.86999e-08
7.90326e-06
5.1986e-08
7.90009e-06
4.99015e-08
7.89927e-06
6.14951e-08
7.89692e-06
6.64191e-08
7.89579e-06
7.2554e-08
7.89703e-06
8.48064e-08
7.89877e-06
9.22783e-08
9.29215e-08
7.90165e-06
8.27903e-06
-1.46577e-07
8.28184e-06
-2.95645e-07
8.30086e-06
1.66638e-07
8.28829e-06
-1.08358e-08
8.29469e-06
-1.76481e-07
8.28836e-06
-5.68221e-08
8.26773e-06
-9.38977e-08
8.27598e-06
-4.90512e-08
8.28161e-06
5.64044e-08
8.27607e-06
5.72696e-08
8.2818e-06
5.13165e-08
8.287e-06
6.35085e-08
8.28214e-06
5.68372e-08
8.27785e-06
5.41921e-08
8.2769e-06
6.24501e-08
8.27558e-06
6.77425e-08
8.27488e-06
7.3246e-08
8.27615e-06
8.35349e-08
8.27795e-06
9.04799e-08
9.02685e-08
8.28061e-06
8.67782e-06
-1.2274e-07
8.67741e-06
-2.95229e-07
8.69879e-06
1.45255e-07
8.68472e-06
3.23975e-09
8.68908e-06
-1.80847e-07
8.68721e-06
-5.49554e-08
8.66566e-06
-7.23397e-08
8.67056e-06
-5.39566e-08
8.67897e-06
4.7992e-08
8.67352e-06
6.27207e-08
8.67577e-06
4.90673e-08
8.68183e-06
5.74489e-08
8.67912e-06
5.95465e-08
8.67433e-06
5.89814e-08
8.67278e-06
6.40009e-08
8.67216e-06
6.83664e-08
8.67208e-06
7.33216e-08
8.67348e-06
8.21347e-08
8.6754e-06
8.85633e-08
8.78666e-08
8.6778e-06
9.09581e-06
-1.00931e-07
9.09194e-06
-2.91354e-07
9.11546e-06
1.21733e-07
9.10069e-06
1.80091e-08
9.10199e-06
-1.82152e-07
9.10444e-06
-5.74062e-08
9.08338e-06
-5.12756e-08
9.08413e-06
-5.47074e-08
9.09451e-06
3.76161e-08
9.09035e-06
6.68783e-08
9.08949e-06
4.99236e-08
9.09511e-06
5.18323e-08
9.0948e-06
5.9858e-08
9.09034e-06
6.34405e-08
9.088e-06
6.63358e-08
9.08761e-06
6.87575e-08
9.08814e-06
7.27938e-08
9.08987e-06
8.04053e-08
9.09199e-06
8.64453e-08
8.57329e-08
9.09412e-06
9.53386e-06
-8.13356e-08
9.5264e-06
-2.83892e-07
9.55166e-06
9.64762e-08
9.53719e-06
3.24793e-08
9.5346e-06
-1.7956e-07
9.54073e-06
-6.35343e-08
9.52161e-06
-3.21553e-08
9.51805e-06
-5.11505e-08
9.52922e-06
2.64479e-08
9.52711e-06
6.89888e-08
9.52386e-06
5.31651e-08
9.52808e-06
4.76126e-08
9.52992e-06
5.80267e-08
9.52656e-06
6.6799e-08
9.52361e-06
6.92784e-08
9.52304e-06
6.93357e-08
9.52392e-06
7.19122e-08
9.52611e-06
7.82159e-08
9.5285e-06
8.40534e-08
8.36495e-08
9.53058e-06
9.9929e-06
-6.40993e-08
9.98187e-06
-2.72863e-07
1.00083e-05
7.0076e-08
9.99514e-06
4.56101e-08
9.98818e-06
-1.72603e-07
9.99694e-06
-7.22929e-08
9.98104e-06
-1.62579e-08
9.97359e-06
-4.36954e-08
9.98418e-06
1.58612e-08
9.98457e-06
6.85915e-08
9.97984e-06
5.79014e-08
9.98204e-06
4.5411e-08
9.9853e-06
5.47631e-08
9.98373e-06
6.83734e-08
9.9806e-06
7.24004e-08
9.97949e-06
7.04458e-08
9.98054e-06
7.08642e-08
9.98299e-06
7.57661e-08
9.98589e-06
8.11511e-08
8.13631e-08
9.98818e-06
1.04739e-05
-4.93101e-08
1.04595e-05
-2.58485e-07
1.04862e-05
4.33084e-08
1.04754e-05
5.64432e-08
1.04641e-05
-1.61271e-07
1.04741e-05
-8.23076e-08
1.04624e-05
-4.58048e-09
1.04518e-05
-3.31137e-08
1.04607e-05
6.9508e-09
1.04636e-05
6.57024e-08
1.04584e-05
6.3169e-08
1.04582e-05
4.55983e-08
1.0462e-05
5.09092e-08
1.04626e-05
6.78399e-08
1.04599e-05
7.51074e-08
1.04582e-05
7.20898e-08
1.04591e-05
6.99935e-08
1.04618e-05
7.30977e-08
1.04651e-05
7.77834e-08
7.86778e-08
1.04678e-05
1.09777e-05
-3.699e-08
1.09604e-05
-2.41146e-07
1.09866e-05
1.70376e-08
1.09789e-05
6.41528e-08
1.09636e-05
-1.45916e-07
1.09734e-05
-9.2137e-08
1.09663e-05
2.49004e-09
1.09538e-05
-2.06138e-08
1.09602e-05
5.25019e-10
1.09653e-05
6.06526e-08
1.09604e-05
6.80815e-08
1.09579e-05
4.80374e-08
1.09613e-05
4.7516e-08
1.09638e-05
6.53601e-08
1.09623e-05
7.66505e-08
1.09603e-05
7.40281e-08
1.09607e-05
6.96482e-08
1.09635e-05
7.02747e-08
1.09671e-05
7.41516e-08
7.54043e-08
1.09704e-05
1.15055e-05
-2.70914e-08
1.14857e-05
-2.2141e-07
1.15106e-05
-7.80595e-09
1.15066e-05
6.81615e-08
1.1488e-05
-1.27314e-07
1.14962e-05
-1.00399e-07
1.14936e-05
5.11924e-09
1.14805e-05
-7.50493e-09
1.1484e-05
-2.94566e-09
1.14907e-05
5.39126e-08
1.14869e-05
7.18597e-08
1.14826e-05
5.23226e-08
1.14846e-05
4.55011e-08
1.14885e-05
6.14668e-08
1.14888e-05
7.64361e-08
1.14869e-05
7.5877e-08
1.14867e-05
6.98955e-08
1.14892e-05
6.77312e-08
1.1493e-05
7.03078e-08
7.17038e-08
1.14967e-05
1.20582e-05
-1.94898e-08
1.20368e-05
-1.99957e-07
1.20593e-05
-3.03156e-08
1.20592e-05
6.81931e-08
1.20385e-05
-1.06524e-07
1.20439e-05
-1.05853e-07
1.20452e-05
3.81418e-09
1.20328e-05
4.92048e-09
1.20332e-05
-3.31841e-09
1.20409e-05
4.61697e-08
1.20389e-05
7.38586e-08
1.20335e-05
5.77425e-08
1.20336e-05
4.54355e-08
1.2038e-05
5.69724e-08
1.20402e-05
7.43263e-08
1.2039e-05
7.70295e-08
1.20383e-05
7.05604e-08
1.20401e-05
6.59209e-08
1.2044e-05
6.64204e-08
6.77639e-08
1.2048e-05
1.26371e-05
-1.39954e-08
1.26147e-05
-1.77529e-07
1.26341e-05
-4.97191e-08
1.26379e-05
6.43621e-08
1.26162e-05
-8.47914e-08
1.26179e-05
-1.07557e-07
1.26225e-05
-7.81341e-10
1.26117e-05
1.57358e-08
1.26091e-05
-7.89258e-10
1.26171e-05
3.81684e-08
1.26174e-05
7.35706e-08
1.26116e-05
6.3528e-08
1.26097e-05
4.73837e-08
1.26138e-05
5.28343e-08
1.26176e-05
7.05643e-08
1.26178e-05
7.68366e-08
1.2617e-05
7.13763e-08
1.2618e-05
6.4876e-08
1.26215e-05
6.29505e-08
6.3628e-08
1.26256e-05
1.32433e-05
-1.0348e-08
1.32207e-05
-1.54915e-07
1.32363e-05
-6.53926e-08
1.32436e-05
5.70984e-08
1.32222e-05
-6.33777e-08
1.32199e-05
-1.0524e-07
1.32266e-05
-7.47414e-09
1.32182e-05
2.4101e-08
1.32132e-05
4.19962e-09
1.32206e-05
3.0776e-08
1.32234e-05
7.07305e-08
1.32181e-05
6.88563e-08
1.32146e-05
5.08869e-08
1.32174e-05
5.00498e-08
1.32224e-05
6.55434e-08
1.32243e-05
7.50066e-08
1.32239e-05
7.17273e-08
1.32244e-05
6.44061e-08
1.3227e-05
6.02858e-08
5.95141e-08
1.32312e-05
1.38781e-05
-8.24077e-09
1.3856e-05
-1.32871e-07
1.38675e-05
-7.69154e-08
1.38776e-05
4.70705e-08
1.38577e-05
-4.34846e-08
1.38514e-05
-9.89669e-08
1.3859e-05
-1.50519e-08
1.38536e-05
2.94943e-08
1.38468e-05
1.09464e-08
1.38527e-05
2.4912e-08
1.3858e-05
6.54783e-08
1.38542e-05
7.26365e-08
1.38495e-05
5.55477e-08
1.38506e-05
4.89482e-08
1.3856e-05
6.01258e-08
1.38595e-05
7.15071e-08
1.38602e-05
7.10586e-08
1.38607e-05
6.39418e-08
1.38626e-05
5.83762e-08
5.6032e-08
1.38661e-05
1.45428e-05
-7.34658e-09
1.45219e-05
-1.12029e-07
1.45292e-05
-8.42033e-08
1.45411e-05
3.52149e-08
1.45237e-05
-2.61079e-08
1.45141e-05
-8.93258e-08
1.45213e-05
-2.22893e-08
1.4519e-05
3.17554e-08
1.45114e-05
1.85576e-08
1.4515e-05
2.13606e-08
1.45221e-05
5.83711e-08
1.45207e-05
7.39721e-08
1.45156e-05
6.06563e-08
1.45151e-05
4.9507e-08
1.452e-05
5.52228e-08
1.45248e-05
6.66485e-08
1.45268e-05
6.90928e-08
1.45275e-05
6.32251e-08
1.45291e-05
5.68361e-08
5.32639e-08
1.45318e-05
1.52389e-05
-7.32738e-09
1.52198e-05
-9.29166e-08
1.5223e-05
-8.74113e-08
1.52357e-05
2.25111e-08
1.52215e-05
-1.19046e-08
1.52093e-05
-7.7213e-08
1.52152e-05
-2.8097e-08
1.52158e-05
3.10875e-08
1.52084e-05
2.59676e-08
1.52092e-05
2.05592e-08
1.52172e-05
5.03897e-08
1.52187e-05
7.24936e-08
1.52142e-05
6.50921e-08
1.52122e-05
5.15192e-08
1.52159e-05
5.15909e-08
1.52216e-05
6.08717e-08
1.52249e-05
6.58279e-08
1.52262e-05
6.18918e-08
1.52276e-05
5.54528e-08
5.11872e-08
1.52297e-05
1.59679e-05
-7.87011e-09
1.59509e-05
-7.59132e-08
1.59504e-05
-8.69228e-08
1.5963e-05
9.94218e-09
1.59523e-05
-1.27213e-09
1.59386e-05
-6.35321e-08
1.59424e-05
-3.18391e-08
1.59454e-05
2.81024e-08
1.59391e-05
3.22314e-08
1.59374e-05
2.22717e-08
1.59448e-05
4.29476e-08
1.59491e-05
6.8192e-08
1.59464e-05
6.78171e-08
1.59435e-05
5.44369e-08
1.59454e-05
4.96351e-08
1.59512e-05
5.50772e-08
1.59559e-05
6.11585e-08
1.5958e-05
5.98496e-08
1.59595e-05
5.39193e-08
4.95134e-08
1.59612e-05
1.67314e-05
-8.68901e-09
1.67167e-05
-6.12287e-08
1.67131e-05
-8.332e-08
1.67247e-05
-1.64514e-09
1.67176e-05
5.80167e-09
1.67034e-05
-4.92934e-08
1.67047e-05
-3.30944e-08
1.67093e-05
2.34919e-08
1.67048e-05
3.6708e-08
1.67014e-05
2.56562e-08
1.6707e-05
3.73755e-08
1.67134e-05
6.17359e-08
1.67132e-05
6.80113e-08
1.67101e-05
5.75617e-08
1.67107e-05
4.90592e-08
1.67152e-05
5.06054e-08
1.6721e-05
5.53605e-08
1.67241e-05
5.67212e-08
1.67258e-05
5.22375e-08
4.77387e-08
1.67276e-05
1.75312e-05
-9.53674e-09
1.75189e-05
-4.89617e-08
1.75129e-05
-7.72572e-08
1.75228e-05
-1.16162e-08
1.7519e-05
9.68438e-09
1.75052e-05
-3.55233e-08
1.75038e-05
-3.17364e-08
1.75093e-05
1.80675e-08
1.7507e-05
3.89658e-08
1.75027e-05
2.99341e-08
1.7506e-05
3.4057e-08
1.75133e-05
5.45289e-08
1.75158e-05
6.54989e-08
1.75137e-05
5.96488e-08
1.75129e-05
4.98094e-08
1.7516e-05
4.75197e-08
1.75212e-05
5.01267e-08
1.75259e-05
5.20881e-08
1.75281e-05
5.00578e-08
4.60359e-08
1.75298e-05
1.8369e-05
-1.02164e-08
1.83591e-05
-3.90766e-08
1.83513e-05
-6.94221e-08
1.83592e-05
-1.95093e-08
1.83581e-05
1.08042e-08
1.83455e-05
-2.29014e-08
1.83418e-05
-2.80954e-08
1.83471e-05
1.27802e-08
1.83472e-05
3.88228e-08
1.83429e-05
3.42582e-08
1.83442e-05
3.28229e-08
1.83508e-05
4.79021e-08
1.83554e-05
6.08982e-08
1.83553e-05
5.97373e-08
1.83539e-05
5.12403e-08
1.83556e-05
4.57562e-08
1.83596e-05
4.61123e-08
1.83644e-05
4.73528e-08
1.83677e-05
4.66989e-08
4.41636e-08
1.83696e-05
1.92468e-05
-1.06008e-08
1.92391e-05
-3.13896e-08
1.92302e-05
-6.0554e-08