/*--------------------------------*- C++ -*----------------------------------*\
| =========                 |                                                 |
| \\      /  F ield         | OpenFOAM: The Open Source CFD Toolbox           |
|  \\    /   O peration     | Version:  2106                                  |
|   \\  /    A nd           | Website:  www.openfoam.com                      |
|    \\/     M anipulation  |                                                 |
\*---------------------------------------------------------------------------*/
FoamFile
{
    version     2.0;
    format      ascii;
    arch        "LSB;label=32;scalar=64";
    class       volVectorField;
    location    "0.415";
    object      U;
}
// * * * * * * * * * * * * * * * * * * * * * * * * * * * * * * * * * * * * * //

dimensions      [0 1 -1 0 0 0 0];

internalField   nonuniform List<vector> 
9600
(
(0.849476 -0.00906319 0)
(1.1734 0.0023915 0)
(0.842987 0.00300487 0)
(1.12181 0.00298506 0)
(0.852445 -0.00553795 0)
(1.17593 -0.00302021 0)
(0.908143 -0.00612054 0)
(1.17535 0.00810095 0)
(0.943446 2.40631e-05 0)
(1.15982 0.0102542 0)
(0.913257 0.000850234 0)
(1.14914 0.00391965 0)
(0.922368 -0.0055824 0)
(1.16084 -0.00206007 0)
(0.922973 -0.00648027 0)
(1.16635 -0.0020782 0)
(0.91357 -0.00219075 0)
(1.168 0.000389429 0)
(0.901279 0.00281858 0)
(1.16443 0.00260707 0)
(0.861492 -0.00930973 0)
(1.16528 0.00250845 0)
(0.860937 0.00322532 0)
(1.11176 0.0031024 0)
(0.874591 -0.00627563 0)
(1.16118 -0.00342035 0)
(0.927515 -0.00631798 0)
(1.16268 0.00782221 0)
(0.967333 4.75294e-05 0)
(1.14294 0.010771 0)
(0.950324 0.000886341 0)
(1.12167 0.00393693 0)
(0.967163 -0.00592899 0)
(1.12016 -0.00196763 0)
(0.978603 -0.00663542 0)
(1.11062 -0.00178871 0)
(0.988395 -0.0020785 0)
(1.08822 0.000388712 0)
(1.00596 0.00402738 0)
(1.04693 0.00191628 0)
(0.88056 -0.00956032 0)
(1.14687 0.00264752 0)
(0.89404 0.00349998 0)
(1.09353 0.00314519 0)
(0.908413 -0.00689527 0)
(1.13226 -0.00378696 0)
(0.958714 -0.00649782 0)
(1.13726 0.00748761 0)
(1.0027 0.000217408 0)
(1.11493 0.0111366 0)
(0.996004 0.00117741 0)
(1.08611 0.00374959 0)
(1.00873 -0.00585185 0)
(1.07444 -0.00219813 0)
(1.01967 -0.00630602 0)
(1.06259 -0.00219892 0)
(1.0288 -0.00148163 0)
(1.04808 -3.49439e-05 0)
(1.03504 0.00479477 0)
(1.03232 0.0026903 0)
(0.90378 -0.00977054 0)
(1.11951 0.00262367 0)
(0.933022 0.00377871 0)
(1.07118 0.00315688 0)
(0.943184 -0.00728604 0)
(1.09483 -0.00418311 0)
(0.988401 -0.00665675 0)
(1.10742 0.00706146 0)
(1.03229 0.00046032 0)
(1.08873 0.0112106 0)
(1.02747 0.00163907 0)
(1.0601 0.00360944 0)
(1.02692 -0.0055672 0)
(1.04462 -0.00242703 0)
(1.02948 -0.00603332 0)
(1.03828 -0.0024771 0)
(1.03348 -0.00114918 0)
(1.0358 -0.000204397 0)
(1.03413 0.00520259 0)
(1.03211 0.0035545 0)
(0.927851 -0.0099228 0)
(1.08795 0.00240877 0)
(0.968047 0.0040474 0)
(1.04996 0.00318784 0)
(0.970523 -0.00748284 0)
(1.05811 -0.00459496 0)
(1.00651 -0.00688156 0)
(1.08135 0.00654418 0)
(1.04762 0.000659273 0)
(1.07072 0.0112203 0)
(1.04142 0.00213961 0)
(1.04585 0.00365469 0)
(1.02877 -0.00517499 0)
(1.02824 -0.00252181 0)
(1.02438 -0.00580107 0)
(1.02522 -0.00270019 0)
(1.02712 -0.00102962 0)
(1.02813 -0.000354375 0)
(1.02914 0.00545641 0)
(1.02795 0.004156 0)
(0.949678 -0.0100063 0)
(1.05799 0.00207434 0)
(0.992779 0.00426744 0)
(1.03369 0.00325787 0)
(0.987525 -0.00750878 0)
(1.02936 -0.00494724 0)
(1.01159 -0.00721741 0)
(1.0614 0.00600288 0)
(1.04974 0.000781866 0)
(1.05882 0.0112389 0)
(1.04362 0.00263169 0)
(1.03778 0.0038619 0)
(1.02462 -0.00468437 0)
(1.01838 -0.00251866 0)
(1.01641 -0.00556435 0)
(1.01572 -0.00296061 0)
(1.01919 -0.000996238 0)
(1.02046 -0.000541367 0)
(1.02298 0.00551972 0)
(1.02244 0.00470855 0)
(0.967362 -0.0100232 0)
(1.03383 0.00170151 0)
(1.00579 0.00440189 0)
(1.02308 0.00336937 0)
(0.995998 -0.00740042 0)
(1.01091 -0.00519658 0)
(1.00825 -0.00762386 0)
(1.04561 0.00546637 0)
(1.04344 0.00083048 0)
(1.04866 0.0112299 0)
(1.03945 0.0030999 0)
(1.03134 0.00413872 0)
(1.01942 -0.00413268 0)
(1.0117 -0.00246569 0)
(1.00958 -0.00530721 0)
(1.00821 -0.00322264 0)
(1.01162 -0.00100239 0)
(1.01301 -0.000727979 0)
(1.01589 0.00543003 0)
(1.01622 0.00525547 0)
(0.980453 -0.00998801 0)
(1.01676 0.0013539 0)
(1.00939 0.00444552 0)
(1.01659 0.00349851 0)
(0.999429 -0.00720976 0)
(1.0011 -0.00533783 0)
(1.00203 -0.00801871 0)
(1.0317 0.00494396 0)
(1.03307 0.000824401 0)
(1.03786 0.0111633 0)
(1.03212 0.00352719 0)
(1.02495 0.00439371 0)
(1.01465 -0.00356893 0)
(1.00709 -0.00239789 0)
(1.00468 -0.00501533 0)
(1.00265 -0.00344463 0)
(1.00506 -0.00102107 0)
(1.00616 -0.00085979 0)
(1.00858 0.00525387 0)
(1.00949 0.00578258 0)
(0.989486 -0.00991859 0)
(1.00576 0.00107319 0)
(1.00735 0.00441961 0)
(1.01234 0.00360772 0)
(1.00063 -0.00698614 0)
(0.996896 -0.0053893 0)
(0.996442 -0.00832546 0)
(1.01904 0.00446228 0)
(1.02168 0.000791286 0)
(1.02648 0.0110297 0)
(1.02375 0.00388686 0)
(1.01872 0.00456968 0)
(1.01068 -0.0030382 0)
(1.00407 -0.00233831 0)
(1.00157 -0.00469478 0)
(0.998958 -0.00359873 0)
(0.999953 -0.00101407 0)
(1.00042 -0.000889032 0)
(1.00193 0.00504002 0)
(1.00298 0.0062767 0)
(0.995363 -0.00982731 0)
(0.999004 0.00087448 0)
(1.00311 0.0043487 0)
(1.00918 0.00366939 0)
(1.00108 -0.00676332 0)
(0.99563 -0.00537736 0)
(0.992738 -0.00850037 0)
(1.00823 0.00405054 0)
(1.01133 0.000753551 0)
(1.01578 0.0108275 0)
(1.01592 0.00416168 0)
(1.01327 0.00464 0)
(1.0076 -0.00256755 0)
(1.00221 -0.0023021 0)
(0.999786 -0.00436118 0)
(0.996828 -0.00367056 0)
(0.996434 -0.000963059 0)
(0.996183 -0.000794336 0)
(0.996675 0.00482282 0)
(0.997562 0.00672681 0)
(0.998952 -0.00971973 0)
(0.994916 0.000748579 0)
(0.998926 0.00425274 0)
(1.00671 0.00367385 0)
(1.00133 -0.00655763 0)
(0.995593 -0.00532669 0)
(0.990817 -0.00853918 0)
(1.00002 0.00371938 0)
(1.0032 0.000725562 0)
(1.00703 0.0105618 0)
(1.00963 0.00435035 0)
(1.00907 0.00460344 0)
(1.00538 -0.0021642 0)
(1.00112 -0.00229107 0)
(0.998853 -0.00402927 0)
(0.995793 -0.00366016 0)
(0.994347 -0.000885695 0)
(0.993504 -0.00059043 0)
(0.993171 0.00462857 0)
(0.99375 0.00712183 0)
(1.00097 -0.00959756 0)
(0.992509 0.000673835 0)
(0.995811 0.00414605 0)
(1.00491 0.0036268 0)
(1.00149 -0.00637099 0)
(0.9959 -0.0052565 0)
(0.990103 -0.00846442 0)
(0.994604 0.00346037 0)
(0.997675 0.000715557 0)
(1.00084 0.0102439 0)
(1.00524 0.0044655 0)
(1.00621 0.00447751 0)
(1.00389 -0.001818 0)
(1.00051 -0.00230009 0)
(0.998394 -0.00370917 0)
(0.9954 -0.00358012 0)
(0.993325 -0.000795175 0)
(0.992115 -0.000301776 0)
(0.991278 0.00447676 0)
(0.991553 0.00745037 0)
(1.00197 -0.00946163 0)
(0.991205 0.000628116 0)
(0.993922 0.00403602 0)
(1.00374 0.00354016 0)
(1.00158 -0.00619697 0)
(0.996197 -0.00517925 0)
(0.99003 -0.0083084 0)
(0.991562 0.0032531 0)
(0.994461 0.000725975 0)
(0.997073 0.00988658 0)
(1.00254 0.0045285 0)
(1.00448 0.00428803 0)
(1.00295 -0.00151161 0)
(1.00016 -0.00231646 0)
(0.998174 -0.00341166 0)
(0.995324 -0.00344633 0)
(0.992966 -0.000702456 0)
(0.991594 5.67281e-05 0)
(0.990551 0.00437818 0)
(0.990611 0.00770225 0)
(1.00238 -0.00931281 0)
(0.990622 0.000593581 0)
(0.992978 0.00392662 0)
(1.00306 0.00342636 0)
(1.0016 -0.00602689 0)
(0.996396 -0.00510192 0)
(0.99022 -0.00810018 0)
(0.99017 0.00307475 0)
(0.992905 0.000755065 0)
(0.995122 0.00950139 0)
(1.00107 0.00455986 0)
(1.00352 0.00406154 0)
(1.00238 -0.00123555 0)
(0.999952 -0.00232217 0)
(0.998061 -0.00314671 0)
(0.995374 -0.00326855 0)
(0.992949 -0.000615194 0)
(0.991553 0.000436297 0)
(0.9905 0.00433425 0)
(0.990449 0.00787245 0)
(1.0025 -0.00915229 0)
(0.990468 0.000558537 0)
(0.992606 0.00382081 0)
(1.00269 0.00329461 0)
(1.00157 -0.00585413 0)
(0.996509 -0.0050279 0)
(0.990479 -0.00786018 0)
(0.989723 0.00290674 0)
(0.99233 0.000798981 0)
(0.994289 0.00909868 0)
(1.00034 0.00457315 0)
(1.00301 0.00381885 0)
(1.00202 -0.000982018 0)
(0.999815 -0.00231134 0)
(0.997994 -0.00290832 0)
(0.995464 -0.00305444 0)
(0.993074 -0.000535217 0)
(0.991723 0.000788306 0)
(0.990761 0.00434016 0)
(0.990675 0.00796444 0)
(1.00249 -0.00898116 0)
(0.990536 0.000516687 0)
(0.992513 0.00372092 0)
(1.00246 0.00314971 0)
(1.0015 -0.00567428 0)
(0.996568 -0.00495918 0)
(0.990736 -0.00760029 0)
(0.989722 0.00273828 0)
(0.992238 0.000853522 0)
(0.994026 0.0086838 0)
(0.999977 0.00458006 0)
(1.00271 0.00357138 0)
(1.00175 -0.000750105 0)
(0.999709 -0.00227714 0)
(0.997947 -0.00269575 0)
(0.995558 -0.00281232 0)
(0.993248 -0.000453218 0)
(0.991967 0.00110788 0)
(0.991131 0.00438789 0)
(0.99105 0.00799151 0)
(1.00244 -0.00880011 0)
(0.9907 0.000465125 0)
(0.992531 0.00362851 0)
(1.00231 0.00299353 0)
(1.00141 -0.00548533 0)
(0.9966 -0.00489564 0)
(0.990975 -0.00732771 0)
(0.989893 0.00256527 0)
(0.992342 0.000915548 0)
(0.994007 0.00826085 0)
(0.999767 0.00458156 0)
(1.0025 0.00332979 0)
(1.00153 -0.000540895 0)
(0.999617 -0.002216 0)
(0.997912 -0.00250827 0)
(0.995651 -0.00255294 0)
(0.993433 -0.000354562 0)
(0.992228 0.00139833 0)
(0.991521 0.00446602 0)
(0.991465 0.00797016 0)
(1.00237 -0.00860942 0)
(0.990897 0.000402563 0)
(0.992584 0.00354457 0)
(1.00217 0.0028268 0)
(1.00131 -0.0052869 0)
(0.996618 -0.00483684 0)
(0.991202 -0.00704501 0)
(0.990114 0.00238497 0)
(0.99251 0.000982802 0)
(0.994076 0.00783602 0)
(0.999613 0.00457158 0)
(1.00232 0.00310317 0)
(1.00133 -0.000351142 0)
(0.99953 -0.00213172 0)
(0.997889 -0.00233367 0)
(0.995742 -0.00228774 0)
(0.993624 -0.00023517 0)
(0.992492 0.00166239 0)
(0.991905 0.00455623 0)
(0.991881 0.00791101 0)
(1.0023 -0.00840904 0)
(0.991105 0.000328244 0)
(0.992648 0.00346976 0)
(1.00204 0.00264951 0)
(1.00121 -0.00507831 0)
(0.996632 -0.00478368 0)
(0.991422 -0.00675303 0)
(0.990345 0.00219764 0)
(0.992693 0.00105212 0)
(0.994173 0.00741294 0)
(0.999475 0.00454858 0)
(1.00216 0.00289082 0)
(1.00115 -0.000184437 0)
(0.999445 -0.00202306 0)
(0.997875 -0.00216544 0)
(0.995836 -0.00202566 0)
(0.993821 -9.31102e-05 0)
(0.99276 0.00190535 0)
(0.992278 0.00464455 0)
(0.992292 0.0078214 0)
(1.00223 -0.008199 0)
(0.991318 0.000241986 0)
(0.992714 0.00340433 0)
(1.00191 0.00246164 0)
(1.00112 -0.00485995 0)
(0.996647 -0.00473475 0)
(0.991641 -0.00645517 0)
(0.990578 0.00200773 0)
(0.992879 0.0011185 0)
(0.994278 0.00699584 0)
(0.999342 0.00451017 0)
(1.002 0.0026937 0)
(1.00097 -3.87002e-05 0)
(0.999361 -0.00189414 0)
(0.997871 -0.00199865 0)
(0.995934 -0.00176451 0)
(0.994026 6.33419e-05 0)
(0.993032 0.002133 0)
(0.992643 0.00473178 0)
(0.992696 0.00771248 0)
(1.00217 -0.00797907 0)
(0.991535 0.000143475 0)
(0.992782 0.00334835 0)
(1.00179 0.00226385 0)
(1.00102 -0.00463343 0)
(0.996664 -0.00468804 0)
(0.991862 -0.00615398 0)
(0.990812 0.00181726 0)
(0.993063 0.00117852 0)
(0.994388 0.0065894 0)
(0.99921 0.0044552 0)
(1.00184 0.00251558 0)
(1.00079 9.42867e-05 0)
(0.999277 -0.00175298 0)
(0.997876 -0.00183013 0)
(0.996037 -0.00149438 0)
(0.994239 0.000222971 0)
(0.993311 0.00234487 0)
(0.993 0.004823 0)
(0.993093 0.00760023 0)
(1.0021 -0.00774921 0)
(0.991758 3.24073e-05 0)
(0.992851 0.00330227 0)
(1.00167 0.00205647 0)
(1.00093 -0.00439952 0)
(0.996683 -0.00464156 0)
(0.992086 -0.00585162 0)
(0.991048 0.00162959 0)
(0.993248 0.00122788 0)
(0.9945 0.00619705 0)
(0.999079 0.00438313 0)
(1.00168 0.00235049 0)
(1.00062 0.000210161 0)
(0.999191 -0.00160215 0)
(0.997889 -0.00166057 0)
(0.996145 -0.00122161 0)
(0.99446 0.000382265 0)
(0.993598 0.00253208 0)
(0.993351 0.00491419 0)
(0.99348 0.00749465 0)
(1.00203 -0.00750963 0)
(0.991986 -9.06022e-05 0)
(0.99292 0.00326565 0)
(1.00154 0.00184035 0)
(1.00083 -0.00415925 0)
(0.996705 -0.00459413 0)
(0.992312 -0.00555006 0)
(0.991287 0.00144931 0)
(0.993434 0.0012625 0)
(0.994617 0.00582318 0)
(0.998949 0.00429338 0)
(1.00152 0.00219782 0)
(1.00046 0.000314432 0)
(0.999104 -0.00144557 0)
(0.99791 -0.00149789 0)
(0.996258 -0.00094806 0)
(0.994685 0.000552366 0)
(0.993895 0.00269261 0)
(0.993698 0.00500022 0)
(0.993855 0.00739518 0)
(1.00196 -0.00726033 0)
(0.992222 -0.0002251 0)
(0.99299 0.00323722 0)
(1.00142 0.00161778 0)
(1.00074 -0.00391587 0)
(0.996729 -0.00454432 0)
(0.992542 -0.00525545 0)
(0.991529 0.00128119 0)
(0.99362 0.00127987 0)
(0.994737 0.00546836 0)
(0.998823 0.00419225 0)
(1.00136 0.00205611 0)
(1.0003 0.000415383 0)
(0.999016 -0.0012833 0)
(0.997938 -0.00133647 0)
(0.996378 -0.000675832 0)
(0.994913 0.000734182 0)
(0.994199 0.00282256 0)
(0.994043 0.0050758 0)
(0.994219 0.00729862 0)
(1.00189 -0.00700136 0)
(0.992464 -0.000371146 0)
(0.993061 0.00321734 0)
(1.00131 0.00139084 0)
(1.00065 -0.00367277 0)
(0.996755 -0.00448655 0)
(0.992774 -0.00497464 0)
(0.991773 0.00112908 0)
(0.993807 0.00127806 0)
(0.994861 0.0051284 0)
(0.998699 0.00408471 0)
(1.00121 0.00191913 0)
(1.00015 0.000511934 0)
(0.998927 -0.00110669 0)
(0.997974 -0.00117135 0)
(0.996505 -0.00040434 0)
(0.995142 0.000929146 0)
(0.994509 0.00292022 0)
(0.994386 0.00513347 0)
(0.994569 0.00720974 0)
(1.00181 -0.00673309 0)
(0.992715 -0.000528098 0)
(0.993135 0.00320461 0)
(1.00119 0.00116081 0)
(1.00057 -0.00343253 0)
(0.996784 -0.00441841 0)
(0.99301 -0.00470687 0)
(0.99202 0.000995755 0)
(0.993994 0.00125604 0)
(0.994989 0.00480311 0)
(0.998578 0.00396962 0)
(1.00106 0.00178135 0)
(1.00001 0.000605263 0)
(0.998838 -0.000914319 0)
(0.998017 -0.0010151 0)
(0.996639 -0.000140057 0)
(0.995367 0.00114155 0)
(0.994822 0.00299269 0)
(0.994733 0.00515992 0)
(0.994907 0.00713386 0)
(1.00173 -0.00645607 0)
(0.992974 -0.000694304 0)
(0.993211 0.00319705 0)
(1.00107 0.00093113 0)
(1.00048 -0.00319834 0)
(0.996814 -0.00433674 0)
(0.993248 -0.00445765 0)
(0.992267 0.00088475 0)
(0.99418 0.00121569 0)
(0.995121 0.00449024 0)
(0.998459 0.0038531 0)
(1.00091 0.0016462 0)
(0.999876 0.000684943 0)
(0.998746 -0.000704962 0)
(0.998065 -0.000867037 0)
(0.996784 0.000109793 0)
(0.995588 0.00136797 0)
(0.995134 0.00305482 0)
(0.995084 0.00514416 0)
(0.995235 0.00706549 0)
(1.00166 -0.00617049 0)
(0.993241 -0.000869592 0)
(0.99329 0.00319451 0)
(1.00096 0.000705211 0)
(1.0004 -0.00297411 0)
(0.996845 -0.00423516 0)
(0.99349 -0.00423442 0)
(0.992515 0.000796548 0)
(0.994365 0.0011614 0)
(0.995256 0.00418525 0)
(0.998343 0.00374202 0)
(1.00076 0.00152061 0)
(0.999756 0.000749728 0)
(0.998655 -0.000474038 0)
(0.998117 -0.000713961 0)
(0.996942 0.000341434 0)
(0.995805 0.00160738 0)
(0.995437 0.00312335 0)
(0.995441 0.0050825 0)
(0.995561 0.00697987 0)
(1.00158 -0.00587727 0)
(0.993515 -0.0010526 0)
(0.993374 0.00319278 0)
(1.00084 0.000486025 0)
(1.00033 -0.00276477 0)
(0.996876 -0.00411104 0)
(0.993736 -0.00403781 0)
(0.992764 0.000730451 0)
(0.994548 0.00109801 0)
(0.995395 0.00388462 0)
(0.99823 0.00363711 0)
(1.00061 0.00140221 0)
(0.999652 0.0007982 0)
(0.998563 -0.000222958 0)
(0.998168 -0.000550808 0)
(0.997112 0.000536988 0)
(0.996018 0.00185407 0)
(0.995725 0.00321817 0)
(0.995797 0.00498795 0)
(0.995894 0.00684693 0)
(1.0015 -0.00557692 0)
(0.993796 -0.00124094 0)
(0.993461 0.00319022 0)
(1.00073 0.000277408 0)
(1.00026 -0.00257424 0)
(0.996905 -0.00396427 0)
(0.993984 -0.00386833 0)
(0.993014 0.000681667 0)
(0.994727 0.00102932 0)
(0.995538 0.0035826 0)
(0.99812 0.00353986 0)
(1.00047 0.0013011 0)
(0.999564 0.000827401 0)
(0.998475 3.90274e-05 0)
(0.998215 -0.000371457 0)
(0.997295 0.000687911 0)
(0.996235 0.00207791 0)
(0.995992 0.00334659 0)
(0.996143 0.00489773 0)
(0.996236 0.00666336 0)
(1.00142 -0.0052701 0)
(0.994084 -0.00143437 0)
(0.993552 0.00318558 0)
(1.00062 8.23688e-05 0)
(1.00019 -0.0024045 0)
(0.996932 -0.0037936 0)
(0.994234 -0.0037235 0)
(0.993266 0.000644165 0)
(0.994901 0.000963038 0)
(0.995687 0.00327803 0)
(0.998016 0.00344876 0)
(1.00032 0.00122286 0)
(0.999493 0.000838868 0)
(0.998392 0.000301311 0)
(0.998253 -0.000171562 0)
(0.997488 0.000806154 0)
(0.996462 0.00225584 0)
(0.996243 0.00348375 0)
(0.996468 0.00484144 0)
(0.996581 0.00645657 0)
(1.00134 -0.00495788 0)
(0.994379 -0.00163136 0)
(0.993648 0.00317646 0)
(1.00051 -9.65538e-05 0)
(1.00014 -0.00225828 0)
(0.996955 -0.00359638 0)
(0.994485 -0.00359918 0)
(0.993519 0.000611395 0)
(0.995069 0.00090904 0)
(0.995841 0.00296832 0)
(0.997918 0.00336174 0)
(1.00018 0.0011659 0)
(0.99944 0.000821425 0)
(0.998319 0.000570843 0)
(0.998279 4.98184e-05 0)
(0.997683 0.000907467 0)
(0.996701 0.00240101 0)
(0.996485 0.00360674 0)
(0.996769 0.00481238 0)
(0.996919 0.00625607 0)
(1.00126 -0.00464216 0)
(0.994681 -0.00182574 0)
(0.993749 0.00316093 0)
(1.0004 -0.000254381 0)
(1.00009 -0.00214077 0)
(0.996976 -0.00337374 0)
(0.994734 -0.00349106 0)
(0.993774 0.000577854 0)
(0.995228 0.000871565 0)
(0.995999 0.00264933 0)
(0.99783 0.00327737 0)
(1.00002 0.00114374 0)
(0.999407 0.000777465 0)
(0.99826 0.0008293 0)
(0.99829 0.000300631 0)
(0.997879 0.00099391 0)
(0.996951 0.00251078 0)
(0.996719 0.00371505 0)
(0.997047 0.00479422 0)
(0.997244 0.00606812 0)
(1.00117 -0.00432295 0)
(0.994989 -0.00201982 0)
(0.993857 0.00313732 0)
(1.00029 -0.000388564 0)
(1.00005 -0.00205273 0)
(0.996994 -0.00312705 0)
(0.994979 -0.00339544 0)
(0.994032 0.000536604 0)
(0.995376 0.000859783 0)
(0.996162 0.00232365 0)
(0.997755 0.00318741 0)
(0.999866 0.00116829 0)
(0.99939 0.000719705 0)
(0.998222 0.00104375 0)
(0.998286 0.000591052 0)
(0.998065 0.00108699 0)
(0.997214 0.00257084 0)
(0.996952 0.00380515 0)
(0.997301 0.00478754 0)
(0.997551 0.0058914 0)
(1.00109 -0.00400209 0)
(0.995302 -0.00221005 0)
(0.993971 0.0031006 0)
(1.00017 -0.000499715 0)
(1.00002 -0.00199469 0)
(0.99701 -0.00286115 0)
(0.995217 -0.00330428 0)
(0.994295 0.000479589 0)
(0.995511 0.000881157 0)
(0.996325 0.00199756 0)
(0.997698 0.00307629 0)
(0.999701 0.00124287 0)
(0.999383 0.000662166 0)
(0.998212 0.0012041 0)
(0.998271 0.00090378 0)
(0.998233 0.00120895 0)
(0.997485 0.00258713 0)
(0.997189 0.00385951 0)
(0.997533 0.00478864 0)
(0.997832 0.00573939 0)
(1.00101 -0.00368217 0)
(0.995619 -0.00239056 0)
(0.994093 0.00304851 0)
(1.00006 -0.000585638 0)
(1.00001 -0.00196791 0)
(0.997025 -0.00258072 0)
(0.995447 -0.00321048 0)
(0.994563 0.000397748 0)
(0.995634 0.000931629 0)
(0.996483 0.00168933 0)
(0.997665 0.00293119 0)
(0.999529 0.00135964 0)
(0.999379 0.000621504 0)
(0.998233 0.00129495 0)
(0.998255 0.00120389 0)
(0.998374 0.00136463 0)
(0.997757 0.00258168 0)
(0.997436 0.0038665 0)
(0.997752 0.00477586 0)
(0.998081 0.00562481 0)
(1.00092 -0.00336244 0)
(0.99594 -0.00256542 0)
(0.994225 0.002982 0)
(0.999933 -0.000640085 0)
(1.00001 -0.00197129 0)
(0.99704 -0.0022907 0)
(0.995663 -0.00310329 0)
(0.99484 0.000284011 0)
(0.995745 0.00101148 0)
(0.996633 0.00141544 0)
(0.997658 0.00274176 0)
(0.999356 0.00150541 0)
(0.999366 0.000624255 0)
(0.998283 0.00132436 0)
(0.998248 0.00146777 0)
(0.99849 0.00155858 0)
(0.99802 0.00258767 0)
(0.997692 0.00383292 0)
(0.997969 0.00472822 0)
(0.998303 0.0055315 0)
(1.00084 -0.00304681 0)
(0.996262 -0.0027262 0)
(0.994367 0.00289598 0)
(0.999805 -0.000661232 0)
(1.00002 -0.00200529 0)
(0.997059 -0.00199661 0)
(0.995864 -0.00297525 0)
(0.995125 0.000135514 0)
(0.995848 0.00110991 0)
(0.996767 0.00119046 0)
(0.99768 0.00250365 0)
(0.99919 0.0016612 0)
(0.999337 0.000685021 0)
(0.998355 0.00131732 0)
(0.998261 0.00167672 0)
(0.998584 0.00176776 0)
(0.998262 0.00262008 0)
(0.997947 0.00378067 0)
(0.998189 0.00464046 0)
(0.998509 0.00542091 0)
(1.00076 -0.0027365 0)
(0.996586 -0.00287254 0)
(0.994522 0.00278994 0)
(0.999671 -0.000645951 0)
(1.00004 -0.00206644 0)
(0.997083 -0.00171053 0)
(0.996044 -0.00281779 0)
(0.995419 -4.35895e-05 0)
(0.995949 0.00120306 0)
(0.996878 0.00104448 0)
(0.997728 0.00221739 0)
(0.999041 0.00178979 0)
(0.999287 0.000813715 0)
(0.998438 0.00130489 0)
(0.998296 0.00182672 0)
(0.998664 0.00196486 0)
(0.998481 0.00267374 0)
(0.998193 0.00373825 0)
(0.998407 0.00453025 0)
(0.998714 0.00526482 0)
(1.00068 -0.0024338 0)
(0.996908 -0.00300008 0)
(0.99469 0.0026601 0)
(0.999531 -0.000593064 0)
(1.00007 -0.00215283 0)
(0.997117 -0.00144479 0)
(0.996199 -0.00261599 0)
(0.99572 -0.000248022 0)
(0.996056 0.00127597 0)
(0.996962 0.000987089 0)
(0.997796 0.00191537 0)
(0.998924 0.00186438 0)
(0.999222 0.000998124 0)
(0.99852 0.00131034 0)
(0.998354 0.00191453 0)
(0.998739 0.00213724 0)
(0.998679 0.00273417 0)
(0.998423 0.0037082 0)
(0.998611 0.00443365 0)
(0.998919 0.00507624 0)
(1.0006 -0.00214051 0)
(0.997228 -0.00310462 0)
(0.994875 0.00250367 0)
(0.999383 -0.000503204 0)
(1.00011 -0.00225856 0)
(0.997166 -0.00121188 0)
(0.996328 -0.00236297 0)
(0.996022 -0.000460121 0)
(0.996179 0.00130855 0)
(0.997017 0.00100337 0)
(0.997872 0.00163496 0)
(0.998846 0.00187034 0)
(0.999146 0.00120217 0)
(0.998588 0.00135112 0)
(0.99843 0.00195172 0)
(0.998815 0.00227541 0)
(0.998859 0.00279716 0)
(0.998642 0.00367349 0)
(0.998794 0.00435777 0)
(0.999112 0.00489054 0)
(1.00053 -0.00185905 0)
(0.997542 -0.00318479 0)
(0.995077 0.00231948 0)
(0.999228 -0.000375845 0)
(1.00016 -0.00236813 0)
(0.997237 -0.00102707 0)
(0.99643 -0.00206429 0)
(0.996318 -0.000661133 0)
(0.996323 0.00128284 0)
(0.997047 0.00108288 0)
(0.997945 0.00139641 0)
(0.998809 0.00179883 0)
(0.999076 0.00139893 0)
(0.998638 0.00144342 0)
(0.998515 0.00196876 0)
(0.9989 0.00236569 0)
(0.999022 0.00285868 0)
(0.998848 0.00363902 0)
(0.998961 0.00428008 0)
(0.999282 0.00472153 0)
(1.00045 -0.00159303 0)
(0.997848 -0.00323152 0)
(0.995299 0.0021057 0)
(0.999068 -0.000220829 0)
(1.00021 -0.0024704 0)
(0.997334 -0.000899472 0)
(0.996507 -0.00172873 0)
(0.996598 -0.000837704 0)
(0.996495 0.00119255 0)
(0.997062 0.00120222 0)
(0.998 0.00123039 0)
(0.99881 0.00166738 0)
(0.999024 0.0015561 0)
(0.998667 0.00158112 0)
(0.998598 0.00199378 0)
(0.998994 0.00240238 0)
(0.999178 0.00289441 0)
(0.99904 0.00361426 0)
(0.99911 0.00420598 0)
(0.999428 0.00456755 0)
(1.00038 -0.00134422 0)
(0.998145 -0.00324529 0)
(0.995541 0.00186272 0)
(0.998904 -4.61109e-05 0)
(1.00026 -0.0025512 0)
(0.997462 -0.000839415 0)
(0.996565 -0.00136951 0)
(0.996854 -0.000960235 0)
(0.996698 0.00103643 0)
(0.997074 0.00132672 0)
(0.998028 0.00115084 0)
(0.99884 0.00151014 0)
(0.999005 0.00165534 0)
(0.998685 0.00174403 0)
(0.998665 0.0020465 0)
(0.999089 0.00240902 0)
(0.999335 0.00289152 0)
(0.999226 0.0035779 0)
(0.999241 0.00415118 0)
(0.999542 0.00443522 0)
(1.00031 -0.00111389 0)
(0.998427 -0.00322324 0)
(0.995803 0.00159013 0)
(0.99874 0.000142637 0)
(1.00029 -0.00259175 0)
(0.997623 -0.000851575 0)
(0.996611 -0.00100993 0)
(0.997074 -0.00100922 0)
(0.996927 0.000833949 0)
(0.997097 0.00143172 0)
(0.998028 0.0011495 0)
(0.998883 0.00135445 0)
(0.999025 0.00168443 0)
(0.998703 0.00190003 0)
(0.998711 0.00213014 0)
(0.999175 0.00241181 0)
(0.999491 0.00285192 0)
(0.999417 0.00350404 0)
(0.999364 0.00409785 0)
(0.999618 0.00434054 0)
(1.00025 -0.000905073 0)
(0.998693 -0.00316046 0)
(0.996086 0.00129418 0)
(0.998581 0.000334132 0)
(1.00031 -0.00257821 0)
(0.997815 -0.000927024 0)
(0.996657 -0.000673563 0)
(0.997254 -0.000978458 0)
(0.997177 0.000610702 0)
(0.997144 0.00149892 0)
(0.998 0.00121287 0)
(0.998926 0.00122685 0)
(0.999084 0.00164348 0)
(0.998737 0.00202401 0)
(0.998738 0.0022456 0)
(0.999239 0.00243302 0)
(0.999636 0.00279449 0)
(0.999616 0.00339468 0)
(0.999497 0.00400798 0)
(0.999663 0.00428126 0)
(1.00019 -0.000721292 0)
(0.998939 -0.00305692 0)
(0.996387 0.000982577 0)
(0.998432 0.0005171 0)
(1.00031 -0.00250689 0)
(0.998037 -0.00105034 0)
(0.996714 -0.000381689 0)
(0.997392 -0.000869019 0)
(0.997436 0.00039047 0)
(0.997225 0.00151196 0)
(0.997952 0.00132202 0)
(0.99895 0.00114987 0)
(0.999176 0.00154784 0)
(0.998802 0.00209306 0)
(0.998755 0.00237231 0)
(0.999275 0.00247852 0)
(0.99976 0.00274141 0)
(0.999815 0.00326488 0)
(0.999657 0.00386682 0)
(0.999701 0.00421339 0)
(1.00014 -0.000559893 0)
(0.999163 -0.00291453 0)
(0.996704 0.0006596 0)
(0.9983 0.000675415 0)
(1.00028 -0.00236959 0)
(0.99828 -0.00120126 0)
(0.996795 -0.000150785 0)
(0.997487 -0.00069613 0)
(0.997692 0.000198327 0)
(0.997344 0.0014682 0)
(0.997897 0.00144917 0)
(0.998946 0.00113399 0)
(0.999286 0.00142955 0)
(0.998908 0.00209507 0)
(0.998777 0.00248444 0)
(0.999283 0.00254861 0)
(0.999852 0.00270199 0)
(1 0.0031318 0)
(0.999837 0.00369334 0)
(0.999759 0.00409417 0)
(1.0001 -0.000424829 0)
(0.999361 -0.00273636 0)
(0.997032 0.00034212 0)
(0.99819 0.000794858 0)
(1.00022 -0.00216914 0)
(0.998537 -0.00135843 0)
(0.996906 5.83662e-06 0)
(0.997548 -0.000482769 0)
(0.997932 4.93832e-05 0)
(0.997504 0.0013743 0)
(0.997848 0.0015752 0)
(0.998907 0.00117947 0)
(0.999398 0.00132125 0)
(0.999056 0.0020265 0)
(0.998821 0.00256024 0)
(0.999266 0.00264405 0)
(0.999906 0.00268265 0)
(1.00016 0.00300086 0)
(1.00002 0.00350856 0)
(0.99985 0.00392146 0)
(1.00006 -0.000314718 0)
(0.999534 -0.00252885 0)
(0.997366 4.11734e-05 0)
(0.998109 0.000873431 0)
(1.00013 -0.0019202 0)
(0.998795 -0.00150262 0)
(0.997055 8.37824e-05 0)
(0.997582 -0.000248724 0)
(0.998145 -4.42849e-05 0)
(0.997702 0.0012362 0)
(0.99782 0.00168271 0)
(0.998835 0.00128329 0)
(0.999488 0.00124583 0)
(0.99924 0.0018981 0)
(0.998907 0.00257311 0)
(0.999237 0.00274267 0)
(0.999912 0.00270167 0)
(1.00029 0.00287675 0)
(1.0002 0.00331943 0)
(0.999968 0.00372043 0)
(1.00002 -0.000227335 0)
(0.999679 -0.00229928 0)
(0.997701 -0.000239285 0)
(0.998062 0.000896341 0)
(1.00002 -0.00163121 0)
(0.999042 -0.00160955 0)
(0.997245 8.50084e-05 0)
(0.997602 -9.97906e-06 0)
(0.998322 -7.79779e-05 0)
(0.997932 0.00106688 0)
(0.99783 0.00174894 0)
(0.998738 0.0014299 0)
(0.999538 0.00122615 0)
(0.999441 0.00174536 0)
(0.999047 0.00251382 0)
(0.999221 0.00280693 0)
(0.999871 0.00276269 0)
(1.00037 0.0027885 0)
(1.00037 0.00312416 0)
(1.0001 0.00351604 0)
(0.999997 -0.000163766 0)
(0.999797 -0.0020553 0)
(0.998029 -0.000490337 0)
(0.998052 0.000866757 0)
(0.999883 -0.00132558 0)
(0.999266 -0.00166166 0)
(0.997475 2.89135e-05 0)
(0.997623 0.000209439 0)
(0.998455 -5.39064e-05 0)
(0.99818 0.000884265 0)
(0.99789 0.00176333 0)
(0.99863 0.00158579 0)
(0.999539 0.00126925 0)
(0.999635 0.00160479 0)
(0.999234 0.0023845 0)
(0.999244 0.00281555 0)
(0.999805 0.00282649 0)
(1.00038 0.00276279 0)
(1.00051 0.00294163 0)
(1.00024 0.00330339 0)
(0.999976 -0.00011934 0)
(0.999887 -0.00180444 0)
(0.998343 -0.000703637 0)
(0.998081 0.000791625 0)
(0.999738 -0.00101843 0)
(0.999458 -0.00165356 0)
(0.997738 -6.65001e-05 0)
(0.997655 0.000387305 0)
(0.998543 2.58506e-05 0)
(0.998434 0.000709051 0)
(0.998005 0.00171932 0)
(0.998532 0.00173498 0)
(0.99949 0.00136503 0)
(0.999796 0.00150495 0)
(0.999457 0.00220385 0)
(0.99932 0.00276127 0)
(0.999745 0.00285509 0)
(1.00033 0.0027777 0)
(1.00059 0.00281564 0)
(1.00038 0.003083 0)
(0.999962 -9.16155e-05 0)
(0.999952 -0.00155795 0)
(0.998637 -0.000864424 0)
(0.998149 0.000671476 0)
(0.999591 -0.000725282 0)
(0.999611 -0.00158141 0)
(0.998024 -0.000191988 0)
(0.997711 0.000513901 0)
(0.998589 0.000151006 0)
(0.998676 0.00056475 0)
(0.998176 0.00160441 0)
(0.998462 0.00185974 0)
(0.999398 0.00150213 0)
(0.999902 0.00145684 0)
(0.999692 0.002013 0)
(0.99945 0.00263582 0)
(0.999711 0.00284094 0)
(1.00026 0.00278247 0)
(1.0006 0.00275195 0)
(1.0005 0.0028856 0)
(0.999952 -7.77374e-05 0)
(0.999995 -0.00132216 0)
(0.998904 -0.000974896 0)
(0.998251 0.000526516 0)
(0.999452 -0.000466508 0)
(0.99972 -0.00144817 0)
(0.998321 -0.000322528 0)
(0.997803 0.000579491 0)
(0.998603 0.000304124 0)
(0.998885 0.000466544 0)
(0.998397 0.00143336 0)
(0.998446 0.00191897 0)
(0.999278 0.0016618 0)
(0.999943 0.00146434 0)
(0.99991 0.00183867 0)
(0.99963 0.00244912 0)
(0.99972 0.00277439 0)
(1.00018 0.00275816 0)
(1.00055 0.00271001 0)
(1.00055 0.00274684 0)
(0.999948 -7.40999e-05 0)
(1.00002 -0.00110294 0)
(0.999142 -0.00103467 0)
(0.998384 0.000364311 0)
(0.999331 -0.000246067 0)
(0.999786 -0.00127426 0)
(0.998614 -0.000433433 0)
(0.997935 0.000584299 0)
(0.998599 0.00046274 0)
(0.999047 0.000426189 0)
(0.998647 0.00123834 0)
(0.998496 0.00190156 0)
(0.999157 0.00180327 0)
(0.999915 0.001539 0)
(1.00008 0.00170287 0)
(0.99984 0.00223026 0)
(0.999781 0.00264239 0)
(1.00011 0.00270258 0)
(1.00049 0.00265204 0)
(1.00055 0.00266013 0)
(0.999948 -7.74887e-05 0)
(1.00003 -0.00090672 0)
(0.999345 -0.00104536 0)
(0.99854 0.000198138 0)
(0.999234 -7.43013e-05 0)
(0.999813 -0.00106994 0)
(0.998892 -0.000515073 0)
(0.998106 0.000543793 0)
(0.998593 0.000600804 0)
(0.999157 0.000451754 0)
(0.998905 0.00104808 0)
(0.998615 0.00180229 0)
(0.999065 0.00189946 0)
(0.999832 0.00164507 0)
(1.00018 0.00163647 0)
(1.00005 0.00201091 0)
(0.999896 0.00244811 0)
(1.00008 0.00260968 0)
(1.00042 0.00256965 0)
(1.00052 0.00258542 0)
(0.999951 -8.48644e-05 0)
(1.00002 -0.000734697 0)
(0.999514 -0.00101714 0)
(0.998711 4.56711e-05 0)
(0.999168 4.45009e-05 0)
(0.999807 -0.000849828 0)
(0.999142 -0.00055733 0)
(0.998312 0.000467886 0)
(0.998603 0.000707896 0)
(0.999218 0.00052094 0)
(0.999138 0.000903441 0)
(0.998795 0.00162971 0)
(0.999026 0.00193403 0)
(0.999722 0.00174432 0)
(1.0002 0.00163425 0)
(1.00022 0.00183949 0)
(1.00005 0.00221356 0)
(1.00009 0.00246659 0)
(1.00037 0.00246963 0)
(1.00048 0.00248644 0)
(0.999956 -9.41072e-05 0)
(1.00001 -0.000588023 0)
(0.99965 -0.000956098 0)
(0.998889 -9.38357e-05 0)
(0.999135 0.000117834 0)
(0.999777 -0.00063298 0)
(0.999354 -0.000551693 0)
(0.998543 0.000365453 0)
(0.99864 0.000775381 0)
(0.999243 0.000611695 0)
(0.999328 0.000810804 0)
(0.999012 0.00143949 0)
(0.999057 0.00187355 0)
(0.999615 0.00182704 0)
(1.00016 0.00166384 0)
(1.00031 0.00173779 0)
(1.00021 0.0019953 0)
(1.00016 0.00226742 0)
(1.00033 0.00235385 0)
(1.00047 0.00236423 0)
(0.999962 -0.000101911 0)
(0.999998 -0.000469057 0)
(0.999752 -0.000869818 0)
(0.999065 -0.000212476 0)
(0.999135 0.000149535 0)
(0.999733 -0.000431271 0)
(0.999524 -0.000504076 0)
(0.998786 0.000262351 0)
(0.998714 0.000788666 0)
(0.999244 0.000717082 0)
(0.999469 0.000764082 0)
(0.999232 0.00126714 0)
(0.999155 0.00173891 0)
(0.999544 0.00185189 0)
(1.00008 0.00171069 0)
(1.00034 0.00168533 0)
(1.00032 0.00183657 0)
(1.00026 0.00205362 0)
(1.00034 0.00220403 0)
(1.00046 0.00224433 0)
(0.999969 -0.000107311 0)
(0.999983 -0.000375566 0)
(0.999826 -0.000766646 0)
(0.999232 -0.000300456 0)
(0.999167 0.000146575 0)
(0.999687 -0.000252092 0)
(0.99965 -0.000424307 0)
(0.999024 0.000177451 0)