/*--------------------------------*- C++ -*----------------------------------*\
| =========                 |                                                 |
| \\      /  F ield         | OpenFOAM: The Open Source CFD Toolbox           |
|  \\    /   O peration     | Version:  2106                                  |
|   \\  /    A nd           | Website:  www.openfoam.com                      |
|    \\/     M anipulation  |                                                 |
\*---------------------------------------------------------------------------*/
FoamFile
{
    version     2.0;
    format      ascii;
    arch        "LSB;label=32;scalar=64";
    class       volScalarField;
    location    "0.475";
    object      p;
}
// * * * * * * * * * * * * * * * * * * * * * * * * * * * * * * * * * * * * * //

dimensions      [0 2 -2 0 0 0 0];

internalField   nonuniform List<scalar> 
9600
(
2.05617e-10
0.00453611
0.00353555
0.00476173
0.00528344
0.00438023
0.00431754
0.00488103
0.00448386
0.00579083
0.00636359
0.00672268
0.00730467
0.00807817
0.00945002
0.00999863
0.0119448
0.0131173
0.0164291
0.0216143
-3.47834e-08
0.00453803
0.00353708
0.00475953
0.00528443
0.00438169
0.00432393
0.00487574
0.00448692
0.00578423
0.00635619
0.00672543
0.00730579
0.00807296
0.00945612
0.00998156
0.0119627
0.0130785
0.0165995
0.021152
6.77374e-07
0.00454237
0.00353925
0.00475669
0.00528671
0.00438455
0.00433013
0.00486522
0.00449302
0.00577412
0.00635015
0.00673132
0.00730356
0.00807135
0.00945629
0.00995822
0.0119685
0.013035
0.0166614
0.0205296
3.41334e-06
0.00454806
0.00354195
0.00475529
0.00528778
0.00438745
0.00433605
0.00485063
0.00450283
0.00576399
0.00634574
0.00673665
0.00729893
0.00807033
0.00945383
0.00993036
0.0119716
0.0129879
0.0166559
0.0200155
9.27684e-06
0.00455381
0.00354515
0.0047547
0.0052858
0.0043901
0.00434254
0.00483316
0.00451781
0.00575376
0.00634084
0.00674069
0.00729376
0.00806827
0.00945073
0.00990084
0.0119747
0.0129358
0.0166199
0.0195578
1.89305e-05
0.00455849
0.00354836
0.00475388
0.00528015
0.00439221
0.00434947
0.00481477
0.00453804
0.00574311
0.00633558
0.00674387
0.00728869
0.0080648
0.0094468
0.0098714
0.0119731
0.0128804
0.0165514
0.0191306
3.24821e-05
0.00456146
0.00355105
0.00475238
0.00527121
0.00439349
0.0043567
0.00479696
0.00456262
0.00573262
0.00633041
0.00674617
0.00728367
0.00805938
0.00944226
0.00984165
0.0119641
0.0128233
0.0164451
0.0187263
4.95899e-05
0.00456266
0.00355294
0.0047501
0.00525991
0.00439388
0.00436423
0.00478025
0.00459045
0.00572267
0.00632538
0.00674745
0.00727842
0.0080517
0.00943562
0.00981159
0.0119465
0.0127649
0.0163003
0.0183407
6.97133e-05
0.00456242
0.00355393
0.00474711
0.00524736
0.00439346
0.00437213
0.00476451
0.00462044
0.00571331
0.00632053
0.0067476
0.00727273
0.00804164
0.00942676
0.00978176
0.0119188
0.0127054
0.0161181
0.0179697
9.23267e-05
0.00456118
0.00355411
0.00474352
0.00523441
0.0043923
0.00438046
0.00474943
0.00465178
0.00570451
0.00631589
0.00674666
0.00726649
0.00802935
0.00941504
0.00975271
0.0118792
0.0126444
0.0159009
0.0176079
0.000117026
0.00455922
0.00355367
0.0047394
0.00522156
0.00439038
0.00438926
0.00473473
0.00468398
0.00569625
0.00631151
0.00674469
0.00725948
0.00801521
0.00939956
0.0097247
0.0118262
0.0125814
0.0156524
0.0172488
0.000143542
0.00455674
0.00355286
0.00473469
0.00520906
0.0043876
0.00439851
0.00472022
0.00471679
0.00568854
0.00630738
0.00674184
0.00725148
0.00799963
0.00937928
0.00969788
0.0117592
0.0125149
0.0153765
0.0168864
0.000171702
0.0045538
0.00355191
0.00472932
0.00519704
0.00438383
0.00440821
0.0047058
0.00475002
0.00568137
0.00630339
0.00673826
0.00724212
0.0079832
0.00935339
0.00967207
0.0116778
0.0124425
0.0150781
0.0165162
0.000201391
0.00455037
0.00355106
0.00472317
0.0051856
0.00437894
0.00441833
0.00469136
0.00478352
0.00567475
0.00629932
0.00673415
0.00723094
0.00796655
0.00932138
0.00964659
0.0115827
0.0123608
0.0147615
0.0161357
0.000232532
0.00454642
0.00355052
0.00471613
0.00517486
0.0043728
0.00442885
0.00467682
0.00481707
0.00566871
0.00629483
0.00672984
0.00721739
0.00795011
0.009283
0.0096203
0.0114753
0.0122662
0.0144281
0.0157447
0.000265086
0.00454186
0.00355049
0.0047081
0.00516496
0.0043653
0.00443974
0.00466215
0.00485045
0.00566333
0.00628948
0.00672573
0.00720096
0.00793391
0.00923843
0.00959153
0.0113573
0.0121562
0.0140895
0.015344
0.000299056
0.00453656
0.00355111
0.00469894
0.00515607
0.00435635
0.00445094
0.00464737
0.00488337
0.00565879
0.00628276
0.00672221
0.0071813
0.00791764
0.00918816
0.00955819
0.0112302
0.0120287
0.013745
0.0149348
0.000334489
0.00453036
0.00355255
0.00468852
0.00514835
0.00434587
0.00446233
0.00463259
0.00491549
0.00565536
0.0062741
0.0067196
0.00715829
0.00790067
0.00913296
0.00951766
0.0110949
0.0118834
0.0133938
0.0145186
0.00037147
0.00452306
0.00355494
0.00467671
0.00514195
0.00433379
0.00447379
0.00461798
0.00494644
0.00565346
0.00626292
0.00671808
0.00713201
0.00788208
0.00907417
0.00946686
0.0109511
0.011722
0.013037
0.0140965
0.000410114
0.00451442
0.00355841
0.00466334
0.00513703
0.00432009
0.00448512
0.00460377
0.00497578
0.00565358
0.00624869
0.00671753
0.00710281
0.00786058
0.00901321
0.009404
0.0107977
0.011547
0.0126756
0.0136693
0.000450554
0.00450417
0.00356306
0.00464826
0.00513372
0.00430474
0.00449608
0.00459032
0.00500296
0.00565633
0.00623106
0.00671765
0.0070713
0.00783432
0.00895103
0.00932852
0.0106327
0.0113604
0.0123116
0.0132363
0.000492948
0.00449201
0.00356903
0.00463134
0.00513211
0.0042878
0.00450632
0.00457812
0.00502725
0.00566218
0.00620985
0.00671785
0.00703849
0.00780114
0.00888765
0.00924089
0.0104544
0.0111567
0.0119476
0.012797
0.000537472
0.0044776
0.0035764
0.00461246
0.00513228
0.00426938
0.00451536
0.00456774
0.00504789
0.00567137
0.00618522
0.00671713
0.00700549
0.00775927
0.00882227
0.0091428
0.0102617
0.0109559
0.0115872
0.0123511
0.00058431
0.00446058
0.00358526
0.00459151
0.00513427
0.0042497
0.00452269
0.00455987
0.0050642
0.00568392
0.00615768
0.00671407
0.00697348
0.00770745
0.00875338
0.00903652
0.0100534
0.0107457
0.0112345
0.0118991
0.000633655
0.00444061
0.00359566
0.00456842
0.00513806
0.00422909
0.00452766
0.00455521
0.00507563
0.00569968
0.00612803
0.00670694
0.00694368
0.00764516
0.0086784
0.00892459
0.00982997
0.0105238
0.010893
0.0114436
0.000685713
0.00441728
0.00360762
0.00454315
0.00514355
0.00420804
0.00452955
0.00455441
0.00508185
0.00571798
0.00609745
0.006694
0.00691649
0.00757272
0.00859451
0.00880854
0.0095933
0.0102877
0.0105645
0.0109894
0.0007407
0.00439023
0.00362112
0.0045158
0.00515051
0.00418715
0.00452756
0.00455794
0.00508286
0.00573782
0.00606734
0.00667362
0.00689136
0.00749122
0.00849917
0.00868756
0.00934639
0.0100349
0.0102487
0.0105423
0.000798832
0.00435911
0.00363602
0.0044865
0.0051586
0.00416722
0.00452083
0.00456601
0.00507902
0.00575803
0.00603914
0.0066444
0.00686723
0.00740227
0.00838996
0.00856753
0.00909331
0.0097639
0.00994296
0.0101081
0.000860327
0.00432362
0.0036521
0.00445547
0.00516766
0.00414926
0.00450865
0.00457838
0.00507102
0.0057771
0.00601414
0.00660553
0.00684253
0.00730786
0.00826511
0.00844448
0.00883848
0.00947446
0.00964312
0.00969229
0.000925374
0.00428355
0.00366901
0.00442305
0.00518388
0.00413431
0.0044906
0.00459453
0.00505976
0.00579329
0.00599301
0.0065569
0.006815
0.00721017
0.00812419
0.00831567
0.00858606
0.00916837
0.00934395
0.00929846
0.000994147
0.00423877
0.00368627
0.00438962
0.00519189
0.00412337
0.00446649
0.00461375
0.00504649
0.00580479
0.00597594
0.00649878
0.0067819
0.00711125
0.00796772
0.00817818
0.00833959
0.00884916
0.00903983
0.00892772
0.00106682
0.00418926
0.0037032
0.00435569
0.00519801
0.00411733
0.00443635
0.00463483
0.00503256
0.00581016
0.00596301
0.00643194
0.00674026
0.00701251
0.00779759
0.00802931
0.00810064
0.00852174
0.00872648
0.00857812
0.0011435
0.00413521
0.00371896
0.00432188
0.00520182
0.00411682
0.00440066
0.00465612
0.00501929
0.00580825
0.00595344
0.00635775
0.00668755
0.00691463
0.00761692
0.00786653
0.00786865
0.00819198
0.00840196
0.00824484
0.00122425
0.00407695
0.00373255
0.00428877
0.00520287
0.00412212
0.00436026
0.00467594
0.00500769
0.00579827
0.00594553
0.00627787
0.00662203
0.00681748
0.00742923
0.00768777
0.00764153
0.00786637
0.00806691
0.00792114
0.00130905
0.00401504
0.00374286
0.00425685
0.00520079
0.00413316
0.00431637
0.0046926
0.00499818
0.00578004
0.0059375
0.00619395
0.00654249
0.00671991
0.00723799
0.00749243
0.00741611
0.00755018
0.00772509
0.00760002
0.00139779
0.00395022
0.0037488
0.00422645
0.00519531
0.0041496
0.0042704
0.00470461
0.00499084
0.00575376
0.00592765
0.0061073
0.00644839
0.00662068
0.00704639
0.00728167
0.00718789
0.00724478
0.00738237
0.00727724
0.00149024
0.00388349
0.00374932
0.00419855
0.0051865
0.00417061
0.00422382
0.00471109
0.00498502
0.00571964
0.00591439
0.0060193
0.00633956
0.00651764
0.00685806
0.00705856
0.0069527
0.00694823
0.00704501
0.00695386
0.00158603
0.00381596
0.00374306
0.00417156
0.00517473
0.0041951
0.00417782
0.00471163
0.00497948
0.00567809
0.00589673
0.00593131
0.00621591
0.00640781
0.00667625
0.00682705
0.00670796
0.00665696
0.00671639
0.00663526
0.00168465
0.00374888
0.0037296
0.00414558
0.00516051
0.00422188
0.00413297
0.00470631
0.00497311
0.00562944
0.00587425
0.0058446
0.00607784
0.00628797
0.00650203
0.00659261
0.00645352
0.00636686
0.00639579
0.00632498
0.0017854
0.00368368
0.00370857
0.00411998
0.0051445
0.00424973
0.00408934
0.00469565
0.00496554
0.00557255
0.00584559
0.0057618
0.00592738
0.00615325
0.00633392
0.00636233
0.00619191
0.00607499
0.00607988
0.00602171
0.00188731
0.00362185
0.00368017
0.0040934
0.00512737
0.00427782
0.00404644
0.00468015
0.00495708
0.00550602
0.00580817
0.00568627
0.00576846
0.00599857
0.00616854
0.00614234
0.00592769
0.0057796
0.00576572
0.00572253
0.00198919
0.00356494
0.00364515
0.00406395
0.0051098
0.00430602
0.00400289
0.00465994
0.00494888
0.00542928
0.0057583
0.00562001
0.00560721
0.00582166
0.00599903
0.0059353
0.00566859
0.00548073
0.00545108
0.00542451
0.0020898
0.00351433
0.00360464
0.00402984
0.00509206
0.00433459
0.00395687
0.00463403
0.00494316
0.00534248
0.00569051
0.00556178
0.00545262
0.00562473
0.00581577
0.00573874
0.00542385
0.00518313
0.00513413
0.00512527
0.00218789
0.00347096
0.00356044
0.00398908
0.00507369
0.00436468
0.00390706
0.00459993
0.00494195
0.00524813
0.00559937
0.00550695
0.00531351
0.00541371
0.00561161
0.00554627
0.00519836
0.00489607
0.00481577
0.00482276
0.00228221
0.00343544
0.00351485
0.00393978
0.00505336
0.00439844
0.00385332
0.00455295
0.00494583
0.00513451
0.00548246
0.0054469
0.00519482
0.0051992
0.00538413
0.00534782
0.00499089
0.00462969
0.00450278
0.0045169
0.00237164
0.00340809
0.00347029
0.00388101
0.00502862
0.00443815
0.00379673
0.00448788
0.00495431
0.00505413
0.00534065
0.00536956
0.00509615
0.00499541
0.00513618
0.00513245
0.00479552
0.00438965
0.00420473
0.00421247
0.00245527
0.00338859
0.00342942
0.00381263
0.00499622
0.00448479
0.00374007
0.00440044
0.00496256
0.00499099
0.00517908
0.00526395
0.00501138
0.00481376
0.0048772
0.00489316
0.00460167
0.00417722
0.00393095
0.0039156
0.00253238
0.00337591
0.00339445
0.00373497
0.00495241
0.00453825
0.00368887
0.00428727
0.00496524
0.00495188
0.00500984
0.00512407
0.00492821
0.00465978
0.00462226
0.00463078
0.0043948
0.00398647
0.00368948
0.00363393
0.00260249
0.00336888
0.00335464
0.00364971
0.00489295
0.00459662
0.00365026
0.0041477
0.0049426
0.00493991
0.00484944
0.00495011
0.00483075
0.00453279
0.00438702
0.00435265
0.00416469
0.0038035
0.00348312
0.00337792
0.00266536
0.00336606
0.00332486
0.00355997
0.00481423
0.00465687
0.00363103
0.00398628
0.00488449
0.00494695
0.00471318
0.00474871
0.00470554
0.00442468
0.00418314
0.00407339
0.00390991
0.0036115
0.00330641
0.00315922
0.00272115
0.00336561
0.00331879
0.00346937
0.00471409
0.00472909
0.00363654
0.00381166
0.00478155
0.00496044
0.00461192
0.00453317
0.00454506
0.00432161
0.00401437
0.00381152
0.0036377
0.00339728
0.00314358
0.00298196
0.00277019
0.00336572
0.00332289
0.003382
0.00459128
0.00477081
0.00366882
0.0036359
0.00462942
0.00496165
0.00454968
0.00432181
0.00434773
0.00420854
0.00387861
0.00358117
0.00336256
0.00315787
0.00297225
0.00283808
0.00281307
0.00336455
0.0033357
0.00330209
0.0044465
0.00479278
0.00372651
0.00347286
0.00442938
0.00493153
0.00452317
0.00413435
0.00411923
0.00406971
0.00376793
0.00338991
0.00310214
0.0029025
0.00277738
0.00270983
0.00285063
0.0033605
0.00335468
0.0032332
0.00428211
0.00478795
0.00380513
0.00333544
0.00418884
0.00485509
0.00451925
0.00398405
0.00387374
0.00389379
0.00366776
0.00324281
0.00286982
0.00264434
0.00255751
0.00257069
0.00288373
0.00335233
0.00337672
0.0031788
0.00410605
0.00475013
0.00389594
0.00323394
0.00392381
0.00472222
0.00451921
0.00387758
0.0036312
0.00367967
0.00355649
0.00313874
0.00268043
0.00239772
0.00232139
0.00240156
0.00291328
0.00333904
0.00339808
0.00314136
0.00392545
0.00467544
0.00398914
0.00317392
0.00365481
0.00453017
0.00450142
0.00381528
0.00341141
0.00343516
0.00341486
0.00306417
0.00254882
0.00217856
0.00207793
0.00219902
0.00293995
0.00332064
0.00341472
0.00312114
0.00374773
0.004562
0.00405619
0.00315492
0.00340688
0.00428416
0.0044439
0.00378914
0.00323195
0.00317362
0.00323341
0.0029926
0.00247466
0.00201012
0.00183986
0.00196741
0.00296406
0.00329774
0.0034233
0.00311689
0.00358145
0.00441116
0.00409653
0.00317375
0.00318963
0.00399819
0.00433186
0.00377872
0.00310409
0.0029175
0.00301305
0.00289952
0.00244185
0.00190976
0.00163081
0.00171372
0.00298575
0.00327107
0.00342162
0.00312535
0.00343238
0.0042297
0.00410151
0.00322003
0.00301346
0.00369313
0.00416116
0.00375934
0.00302645
0.00269387
0.00276464
0.00276643
0.00241964
0.00187396
0.00148003
0.00145959
0.0030049
0.00324185
0.00340838
0.0031413
0.00330403
0.00402866
0.00406605
0.00326959
0.00288337
0.00339183
0.00393579
0.00371166
0.00298903
0.00251882
0.00250907
0.00258726
0.00237654
0.00188219
0.001402
0.0012409
0.00302108
0.00321127
0.00338322
0.0031586
0.00319846
0.00381917
0.00398773
0.0033121
0.00280155
0.00311525
0.0036673
0.00361805
0.00297326
0.00239787
0.00227217
0.0023711
0.00228752
0.00189496
0.00138977
0.00109368
0.00303366
0.00318032
0.00334694
0.00317362
0.0031154
0.00361273
0.00386837
0.0033356
0.00275527
0.00287566
0.00337525
0.00347165
0.00295304
0.00232753
0.0020744
0.00213424
0.00214525
0.00187755
0.00141216
0.00102628
0.0030419
0.00314974
0.00330096
0.00317407
0.00305272
0.00341893
0.00371472
0.00332874
0.00273419
0.00267978
0.00308151
0.00327727
0.0029065
0.00229261
0.00192844
0.001903
0.00195647
0.00181034
0.00143135
0.00102373
0.00304504
0.00311982
0.0032476
0.00316254
0.00300648
0.0032441
0.00353688
0.00328562
0.00272453
0.00253
0.00280426
0.00304428
0.00282094
0.0022689
0.00183128
0.00170383
0.00173966
0.00168931
0.00142043
0.0010484
0.00304249
0.0030904
0.00318964
0.0031375
0.0029709
0.00309171
0.00334702
0.00320584
0.00271119
0.00242166
0.00255901
0.00278829
0.00268978
0.0022367
0.00177171
0.00155102
0.00152822
0.00152306
0.00136342
0.00106467
0.00303395
0.00306095
0.00312968
0.00309918
0.00294022
0.00296275
0.00315732
0.00309288
0.00268239
0.00234235
0.00235307
0.00253159
0.00251747
0.00217813
0.00173257
0.00144314
0.0013483
0.00133712
0.00125905
0.00104828
0.00301935
0.00303074
0.00306984
0.00304878
0.00290286
0.00285683
0.00297719
0.00295442
0.00263053
0.0022789
0.00218546
0.00229278
0.00231785
0.00208253
0.00169411
0.00137319
0.00121158
0.00116329
0.00112064
0.000988969
0.00299896
0.00300047
0.00301145
0.00298866
0.00285928
0.00276545
0.00281306
0.002801
0.00255288
0.00221997
0.00205235
0.00208005
0.00210984
0.00195459
0.00163793
0.00132589
0.00111707
0.00102053
0.000975391
0.000892843
0.00297324
0.00296641
0.00295504
0.00292219
0.00280719
0.00268625
0.00266819
0.00264404
0.00245237
0.00215464
0.00194598
0.00189821
0.00190646
0.00180483
0.00155649
0.00127985
0.00105666
0.000915845
0.000845637
0.000778999
0.00294293
0.00292958
0.00290062
0.00285314
0.0027465
0.00261336
0.00254264
0.00249228
0.00233541
0.00207677
0.00185425
0.00174796
0.00171797
0.00164517
0.00145503
0.00122004
0.00101203
0.00084628
0.000743474
0.000668725
0.00290899
0.0028899
0.00284767
0.00278454
0.00267904
0.00254193
0.00243446
0.00235196
0.00221002
0.00198633
0.00176679
0.0016245
0.00155328
0.0014857
0.001341
0.00114427
0.000964039
0.00080047
0.000671263
0.000575697
0.00287239
0.00284775
0.00279547
0.00271829
0.00260812
0.00246956
0.00233901
0.00222655
0.00208474
0.00188641
0.00167848
0.00151915
0.00141457
0.00133615
0.001222
0.00105843
0.000903493
0.000759408
0.000622185
0.000505116
0.00283404
0.00280401
0.00274362
0.00265522
0.00253727
0.00239621
0.00225177
0.00211589
0.00196681
0.0017825
0.00158739
0.00142386
0.00129928
0.001204
0.00110496
0.000968934
0.000832452
0.000709482
0.00058051
0.000452123
0.00279489
0.00275987
0.00269238
0.00259548
0.00246931
0.00232356
0.00217055
0.00201845
0.00185967
0.00168107
0.00149557
0.0013335
0.00120183
0.00109227
0.000996125
0.000881697
0.000758306
0.000648879
0.000533147
0.000404854
0.00275593
0.00271659
0.00264254
0.00253911
0.00240604
0.0022541
0.00209464
0.00193216
0.00176442
0.00158692
0.00140728
0.00124666
0.00111425
0.000999077
0.000899593
0.000799496
0.000688591
0.00058535
0.00047956
0.000355889
0.00271827
0.00267539
0.00259549
0.0024865
0.0023483
0.00219028
0.00202476
0.00185547
0.00168145
0.00150283
0.00132676
0.00116691
0.00103324
0.000917218
0.000814924
0.000722133
0.000623788
0.00052573
0.000426326
0.000308884
0.00268319
0.00263751
0.00255272
0.00243876
0.00229681
0.00213382
0.00196255
0.001788
0.00161015
0.00143048
0.00125667
0.00109829
0.000963215
0.000846322
0.00074022
0.000645865
0.000555365
0.000465061
0.000374375
0.000266983
0.00265214
0.00260436
0.00251569
0.00239731
0.00225262
0.00208619
0.00190981
0.00173065
0.00155045
0.00137044
0.0011976
0.00104073
0.000907464
0.00079523
0.000692939
0.000595898
0.000500303
0.00040123
0.000299372
0.000187553
0.00262656
0.00257732
0.00248591
0.00236386
0.00221723
0.00204894
0.00186867
0.00168562
0.0015039
0.00132431
0.00115189
0.000994164
0.00085751
0.000742651
0.000642287
0.000549248
0.000460105
0.000369256
0.000272622
0.000163208
0.00260676
0.00255526
0.00246171
0.00233649
0.00218742
0.00201762
0.00183467
0.00164837
0.00146529
0.00128671
0.00111567
0.000958536
0.000821947
0.000707025
0.000607619
0.000514724
0.000423443
0.000329882
0.000230098
0.000118079
0.0303326
0.0214625
0.0109542
0.00341174
0.000452685
0.000499739
0.000908618
0.000800677
0.000417677
-2.20629e-05
-0.000425263
-0.000719917
-0.000996648
-0.0013506
-0.00170115
-0.0020016
-0.0023041
-0.00261619
-0.00292867
-0.00326036
-0.0036041
-0.00393513
-0.00425933
-0.00459034
-0.00493086
-0.00528551
-0.00564761
-0.00599297
-0.00631647
-0.00664908
-0.00700126
-0.00733448
-0.0076397
-0.00796639
-0.00833151
-0.00867526
-0.00898668
-0.00933109
-0.00970833
-0.0100754
-0.0104419
-0.0108068
-0.0111552
-0.0115113
-0.0118954
-0.0122922
-0.0126714
-0.0130412
-0.0134407
-0.0138559
-0.014236
-0.0146087
-0.0150154
-0.0154253
-0.0158125
-0.0162088
-0.0166249
-0.0170425
-0.0174621
-0.0178902
-0.0183262
-0.0187667
-0.019216
-0.0196716
-0.0201325
-0.0205961
-0.021065
-0.0215468
-0.0220409
-0.0225474
-0.0230611
-0.0235875
-0.0241219
-0.0246655
-0.0252185
-0.0257797
-0.0263544
-0.0269346
-0.0275307
-0.0281328
-0.0287495
-0.0293765
-0.0300132
-0.0306664
-0.0313251
-0.0320024
-0.0326878
-0.0333863
-0.0341018
-0.0348231
-0.0355652
-0.0363162
-0.0370805
-0.0378634
-0.038655
-0.0394627
-0.0402866
-0.0411233
-0.0419044
-0.0427038
0.0287647
0.0212589
0.0110294
0.00354885
0.000549615
0.00054973
0.000939601
0.000821427
0.000432138
-1.11494e-05
-0.000416488
-0.000712258
-0.000989625
-0.00134437
-0.00169567
-0.00199663
-0.00229963
-0.00261219
-0.00292502
-0.00325705
-0.00360113
-0.00393244
-0.00425687
-0.00458807
-0.00492875
-0.00528355
-0.0056458
-0.0059913
-0.0063149
-0.0066476
-0.00699992
-0.00733328
-0.00763855
-0.00796528
-0.0083305
-0.00867437
-0.00898583
-0.00933026
-0.00970757
-0.0100747
-0.0104412
-0.0108062
-0.0111546
-0.0115107
-0.0118949
-0.0122917
-0.012671
-0.0130409
-0.0134403
-0.0138556
-0.0142357
-0.0146084
-0.0150152
-0.0154251
-0.0158124
-0.0162086
-0.0166248
-0.0170424
-0.017462
-0.0178901
-0.0183261
-0.0187666
-0.0192159
-0.0196715
-0.0201325
-0.0205961
-0.021065
-0.0215468
-0.0220408
-0.0225474
-0.0230611
-0.0235875
-0.0241219
-0.0246655
-0.0252185
-0.0257797
-0.0263544
-0.0269346
-0.0275306
-0.0281328
-0.0287495
-0.0293765
-0.0300132
-0.0306664
-0.0313251
-0.0320024
-0.0326878
-0.0333863
-0.0341018
-0.0348231
-0.0355652
-0.0363162
-0.0370805
-0.0378634
-0.038655
-0.0394627
-0.0402866
-0.0411233
-0.0419045
-0.0427039
0.027552
0.021146
0.0112258
0.00381932
0.000721348
0.000614203
0.000966978
0.000842752
0.000450561
3.5435e-06
-0.000405309
-0.000703622
-0.000982565
-0.00133836
-0.00169033
-0.00199174
-0.00229525
-0.00260832
-0.00292153
-0.0032539
-0.00359832
-0.00392989
-0.00425455
-0.00458599
-0.00492685
-0.00528181
-0.00564421
-0.00598983
-0.00631349
-0.00664626
-0.00699872
-0.0073322
-0.00763751
-0.00796427
-0.0083296
-0.00867357
-0.00898504
-0.00932951
-0.00970691
-0.0100741
-0.0104407
-0.0108057
-0.0111541
-0.0115102
-0.0118945
-0.0122913
-0.0126707
-0.0130405
-0.01344
-0.0138553
-0.0142355
-0.0146082
-0.015015
-0.015425
-0.0158122
-0.0162085
-0.0166246
-0.0170423
-0.0174618
-0.01789
-0.018326
-0.0187665
-0.0192159
-0.0196714
-0.0201324
-0.020596
-0.021065
-0.0215467
-0.0220408
-0.0225473
-0.0230611
-0.0235875
-0.0241218
-0.0246655
-0.0252185
-0.0257797
-0.0263544
-0.0269346
-0.0275306
-0.0281328
-0.0287495
-0.0293765
-0.0300132
-0.0306664
-0.0313251
-0.0320024
-0.0326878
-0.0333863
-0.0341018
-0.0348231
-0.0355652
-0.0363162
-0.0370805
-0.0378634
-0.038655
-0.0394627
-0.0402866
-0.0411234
-0.0419045
-0.0427039
0.026451
0.0209936
0.0114473
0.00413928
0.000940679
0.000697017
0.001002
0.000873285
0.000478537
2.59219e-05
-0.000388593
-0.000691698
-0.000973867
-0.00133118
-0.00168374
-0.00198562
-0.0022898
-0.00260358
-0.00291736
-0.00325014
-0.00359484
-0.00392668
-0.00425168
-0.00458348
-0.00492465
-0.00527984
-0.00564242
-0.00598818
-0.0063119
-0.00664472
-0.00699732
-0.00733095
-0.00763635
-0.00796316
-0.00832858
-0.00867262
-0.00898412
-0.00932868
-0.00970619
-0.0100734
-0.01044
-0.0108051
-0.0111536
-0.0115097
-0.011894
-0.0122908
-0.0126703
-0.0130401
-0.0134396
-0.013855
-0.0142352
-0.0146079
-0.0150147
-0.0154248
-0.015812
-0.0162083
-0.0166245
-0.0170422
-0.0174617
-0.0178899
-0.0183259
-0.0187664
-0.0192158
-0.0196714
-0.0201324
-0.020596
-0.0210649
-0.0215467
-0.0220408
-0.0225473
-0.0230611
-0.0235875
-0.0241218
-0.0246655
-0.0252185
-0.0257797
-0.0263544
-0.0269346
-0.0275306
-0.0281327
-0.0287495
-0.0293765
-0.0300132
-0.0306664
-0.0313251
-0.0320024
-0.0326878
-0.0333863
-0.0341018
-0.0348231
-0.0355652
-0.0363162
-0.0370805
-0.0378634
-0.038655
-0.0394627
-0.0402866
-0.0411234
-0.0419046
-0.0427041
0.0253489
0.0207626
0.0116571
0.00446661
0.00117349
0.000786679
0.00103921
0.000909021
0.000514266
5.60633e-05
-0.000365259
-0.000675228
-0.000962528
-0.001322
-0.00167512
-0.00197753
-0.0022825
-0.00259725
-0.00291201
-0.00324539
-0.00359035
-0.00392243
-0.00424783
-0.00458014
-0.00492176
-0.00527725
-0.00564007
-0.00598605
-0.0063099
-0.00664276
-0.00699543
-0.00732929
-0.00763492
-0.00796179
-0.0083272
-0.00867129
-0.00898292
-0.00932768
-0.00970531
-0.0100725
-0.0104391
-0.0108043
-0.0111529
-0.011509
-0.0118933
-0.0122902
-0.0126697
-0.0130396
-0.0134392
-0.0138546
-0.0142348
-0.0146075
-0.0150144
-0.0154245
-0.0158117
-0.016208
-0.0166242
-0.017042
-0.0174615
-0.0178898
-0.0183258
-0.0187663
-0.0192157
-0.0196713
-0.0201323
-0.0205959
-0.0210648
-0.0215466
-0.0220407
-0.0225473
-0.023061
-0.0235875
-0.0241218
-0.0246655
-0.0252185
-0.0257797
-0.0263544
-0.0269346
-0.0275306
-0.0281327
-0.0287495
-0.0293765
-0.0300132
-0.0306664
-0.0313251
-0.0320024
-0.0326878
-0.0333863
-0.0341018
-0.0348231
-0.0355652
-0.0363162
-0.0370805
-0.0378634
-0.038655
-0.0394627
-0.0402866
-0.0411234
-0.0419047
-0.0427043
0.0242545
0.0204659
0.0118575
0.00479617
0.00141267
0.000879847
0.00107513
0.000944856
0.000552925
9.03172e-05
-0.000337785
-0.000655573
-0.000949091
-0.00131101
-0.00166463
-0.00196751
-0.00227321
-0.00258909
-0.00290518
-0.00323945
-0.00358475
-0.00391711
-0.00424301
-0.00457594
-0.00491808
-0.00527385
-0.00563686
-0.00598316
-0.00630732
-0.00664018
-0.00699283
-0.00732704
-0.00763315
-0.00796011
-0.00832532
-0.00866939
-0.0089813
-0.00932639
-0.00970416
-0.0100713
-0.0104379
-0.0108032
-0.0111519
-0.0115081
-0.0118924
-0.0122893
-0.0126689
-0.0130388
-0.0134385
-0.0138539
-0.0142341
-0.0146069
-0.0150139
-0.015424
-0.0158113
-0.0162076
-0.0166239
-0.0170417
-0.0174613
-0.0178895
-0.0183256
-0.0187661
-0.0192155
-0.0196711
-0.0201322
-0.0205958
-0.0210647
-0.0215465
-0.0220406
-0.0225472
-0.023061
-0.0235874
-0.0241218
-0.0246654
-0.0252184
-0.0257796
-0.0263543
-0.0269346
-0.0275306
-0.0281327
-0.0287495
-0.0293765
-0.0300132
-0.0306664
-0.0313251
-0.0320024
-0.0326878
-0.0333863
-0.0341018
-0.0348231
-0.0355652
-0.0363162
-0.0370805
-0.0378634
-0.038655
-0.0394627
-0.0402866
-0.0411234
-0.0419048
-0.0427047
0.0231846
0.0201173
0.0120485
0.00512634
0.00165697
0.000976568
0.00110931
0.000979177
0.000592598
0.000126686
-0.0003082
-0.000634262
-0.000934483
-0.00129897
-0.00165299
-0.00195623
-0.00226246
-0.00257939
-0.00289696
-0.00323229
-0.00357806
-0.00391087
-0.00423744
-0.00457111
-0.00491378
-0.0052697
-0.00563271
-0.00597934
-0.00630395
-0.00663681
-0.00698933
-0.00732405
-0.00763099
-0.0079581
-0.00832284
-0.00866679
-0.00897915
-0.00932472
-0.00970264
-0.0100697
-0.0104362
-0.0108016
-0.0111506
-0.011507
-0.0118911
-0.0122879
-0.0126677
-0.0130379
-0.0134375
-0.0138529
-0.0142332
-0.0146061
-0.0150131
-0.0154233
-0.0158106
-0.0162071
-0.0166234
-0.0170412
-0.0174608
-0.0178892
-0.0183252
-0.0187658
-0.0192153
-0.0196709
-0.020132
-0.0205956
-0.0210646
-0.0215464
-0.0220405
-0.0225471
-0.0230609
-0.0235873
-0.0241217
-0.0246654
-0.0252184
-0.0257796
-0.0263543
-0.0269346
-0.0275306
-0.0281327
-0.0287494
-0.0293765
-0.0300132
-0.0306664
-0.0313251
-0.0320024
-0.0326878
-0.0333863
-0.0341018
-0.0348231
-0.0355652
-0.0363162
-0.0370805
-0.0378634
-0.038655
-0.0394627
-0.0402866
-0.0411235
-0.041905
-0.0427051
0.0221512
0.0197203
0.0122227
0.00545383
0.00190616
0.00107805
0.00114248
0.00101177
0.000632903
0.000164721
-0.000277128
-0.000611853
-0.000919137
-0.00128638
-0.00164082
-0.00194434
-0.00225091
-0.00256873
-0.00288773
-0.00322413
-0.00357046
-0.00390391
-0.00423137
-0.00456594
-0.0049092
-0.0052651
-0.00562784
-0.00597467
-0.00629976
-0.00663256
-0.00698483
-0.00732024
-0.00762839
-0.00795575
-0.00831979
-0.00866351
-0.00897647
-0.00932261
-0.00970066
-0.0100675
-0.010434
-0.0107996
-0.011149
-0.0115055
-0.0118894
-0.0122861
-0.0126661
-0.0130365
-0.0134361
-0.0138515
-0.0142319
-0.014605
-0.0150121
-0.0154222
-0.0158097
-0.0162063
-0.0166227
-0.0170405
-0.0174602
-0.0178886
-0.0183248
-0.0187654
-0.0192149
-0.0196706
-0.0201317
-0.0205953
-0.0210643
-0.0215462
-0.0220403
-0.0225469
-0.0230607
-0.0235872
-0.0241216
-0.0246653
-0.0252183
-0.0257795
-0.0263542
-0.0269345
-0.0275305
-0.0281327
-0.0287494
-0.0293765
-0.0300132
-0.0306664
-0.031325
-0.0320024
-0.0326878
-0.0333863
-0.0341018
-0.0348231
-0.0355652
-0.0363162
-0.0370805
-0.0378634
-0.038655
-0.0394627
-0.0402866
-0.0411235
-0.0419052
-0.0427056
0.0211623
0.0192748
0.0123713
0.00577688
0.00216201
0.00118669
0.0011759
0.00104252
0.000673406
0.000204226
-0.000244686
-0.000588487
-0.000903207
-0.00127344
-0.00162841
-0.00193222
-0.00223907
-0.00255764
-0.00287795
-0.00321535
-0.00356223
-0.00389641
-0.00422494
-0.00456059
-0.00490451
-0.00526033
-0.0056226
-0.00596942
-0.0062949
-0.00662753
-0.00697943
-0.00731564
-0.00762534
-0.00795306
-0.00831624
-0.00865968
-0.00897337
-0.00932014
-0.00969823
-0.0100649
-0.0104312
-0.010797
-0.011147
-0.0115037
-0.0118873
-0.0122836
-0.0126639
-0.0130348
-0.0134344
-0.0138495
-0.0142301
-0.0146035
-0.0150107
-0.0154208
-0.0158084
-0.0162052
-0.0166216
-0.0170395
-0.0174594
-0.0178879
-0.0183241
-0.0187648
-0.0192144
-0.0196701
-0.0201313
-0.020595
-0.021064
-0.0215459
-0.02204
-0.0225467
-0.0230605
-0.023587
-0.0241214
-0.0246651
-0.0252182
-0.0257794
-0.0263541
-0.0269344
-0.0275305
-0.0281326
-0.0287494
-0.0293764
-0.0300131
-0.0306664
-0.031325
-0.0320023
-0.0326878
-0.0333863
-0.0341018
-0.0348231
-0.0355652
-0.0363162
-0.0370805
-0.0378634
-0.038655
-0.0394627
-0.0402866
-0.0411235
-0.0419055
-0.0427062
0.0202225
0.0187834
0.0124882
0.0060954
0.00242669
0.00130462
0.00121031
0.00107072
0.000713231
0.000244935
-0.000210831
-0.00056409
-0.000886608
-0.00126008
-0.00161575
-0.00191999
-0.00222716
-0.00254645
-0.002868
-0.00320634
-0.00355369
-0.00388857
-0.00421822
-0.00455502
-0.00489969
-0.00525547
-0.00561718
-0.00596386
-0.0062896
-0.00662194
-0.00697335
-0.00731042
-0.00762188
-0.00795006
-0.00831229
-0.00865543
-0.00897
-0.00931745
-0.00969547
-0.0100617
-0.0104277
-0.0107939
-0.0111446
-0.0115017
-0.0118848
-0.0122807
-0.0126613
-0.0130327
-0.0134322
-0.013847
-0.0142279
-0.0146017
-0.0150089
-0.015419
-0.0158069
-0.0162038
-0.0166203
-0.0170383
-0.0174582
-0.0178868
-0.0183231
-0.018764
-0.0192137
-0.0196695
-0.0201307
-0.0205945
-0.0210636
-0.0215455
-0.0220397
-0.0225463
-0.0230602
-0.0235867
-0.0241212
-0.0246649
-0.025218
-0.0257792
-0.026354
-0.0269343
-0.0275304
-0.0281325
-0.0287493
-0.0293764
-0.0300131
-0.0306663
-0.031325
-0.0320023
-0.0326878
-0.0333863
-0.0341018
-0.0348231
-0.0355652
-0.0363162
-0.0370805
-0.0378634
-0.038655
-0.0394626
-0.0402867
-0.0411235
-0.0419058
-0.0427069
0.0193357
0.0182528
0.0125695
0.00640833
0.0027005
0.00143291
0.00124614
0.00109569
0.00075166
0.000286813
-0.0001752
-0.00053826
-0.000868985
-0.00124603
-0.00160268
-0.0019076
-0.00221527
-0.00253533
-0.00285813
-0.00319733
-0.00354505
-0.00388054
-0.00421124
-0.00454916
-0.00489461
-0.00525041
-0.0056116
-0.00595811
-0.00628406
-0.006616
-0.00696683
-0.00730476
-0.00761808
-0.00794679
-0.00830802
-0.00865085
-0.00896642
-0.00931462