/*--------------------------------*- C++ -*----------------------------------*\
| =========                 |                                                 |
| \\      /  F ield         | OpenFOAM: The Open Source CFD Toolbox           |
|  \\    /   O peration     | Version:  2106                                  |
|   \\  /    A nd           | Website:  www.openfoam.com                      |
|    \\/     M anipulation  |                                                 |
\*---------------------------------------------------------------------------*/
FoamFile
{
    version     2.0;
    format      ascii;
    arch        "LSB;label=32;scalar=64";
    class       volVectorField;
    location    "0.475";
    object      U;
}
// * * * * * * * * * * * * * * * * * * * * * * * * * * * * * * * * * * * * * //

dimensions      [0 1 -1 0 0 0 0];

internalField   nonuniform List<vector> 
9600
(
(0.854475 -0.0086746 0)
(1.14245 0.0119957 0)
(0.891098 -0.00647629 0)
(1.13808 0.00691692 0)
(0.88328 -0.00368201 0)
(1.13993 -0.00542035 0)
(0.924679 -0.0072801 0)
(1.16375 -0.00765262 0)
(0.904656 0.00139554 0)
(1.15596 0.00359135 0)
(0.885849 0.0031084 0)
(1.11625 0.00727316 0)
(0.924348 0.00248515 0)
(1.10184 0.000736469 0)
(0.930535 -0.00129235 0)
(1.0976 -0.00680311 0)
(0.923177 0.0034303 0)
(1.10534 -0.0106919 0)
(0.896094 0.000860458 0)
(1.11393 -0.016343 0)
(0.866267 -0.00873287 0)
(1.13638 0.011871 0)
(0.910146 -0.00655864 0)
(1.12928 0.00710403 0)
(0.910211 -0.00382212 0)
(1.1223 -0.0056345 0)
(0.944992 -0.00781705 0)
(1.14508 -0.00718438 0)
(0.927376 0.0012737 0)
(1.13313 0.00405086 0)
(0.919383 0.00357377 0)
(1.08686 0.00687908 0)
(0.964929 0.00261369 0)
(1.06398 0.000747923 0)
(0.981329 -0.00123129 0)
(1.04409 -0.00660689 0)
(0.989542 0.00315059 0)
(1.02881 -0.0104419 0)
(0.991257 0.00102267 0)
(1.003 -0.0180317 0)
(0.885546 -0.00881976 0)
(1.12289 0.0116457 0)
(0.935268 -0.00657904 0)
(1.11116 0.00722111 0)
(0.944825 -0.00386015 0)
(1.09232 -0.00583102 0)
(0.971652 -0.00817739 0)
(1.111 -0.0068661 0)
(0.964766 0.00126215 0)
(1.09719 0.00433857 0)
(0.966771 0.00410424 0)
(1.0532 0.00627827 0)
(1.00334 0.00291273 0)
(1.03527 0.000499171 0)
(1.01147 -0.000904426 0)
(1.01833 -0.0066882 0)
(1.01276 0.00330834 0)
(1.01361 -0.00999975 0)
(1.00709 0.00121271 0)
(1.00349 -0.0133079 0)
(0.908922 -0.00892656 0)
(1.10324 0.0113508 0)
(0.958712 -0.00652287 0)
(1.08661 0.00717942 0)
(0.974363 -0.00372372 0)
(1.05846 -0.00597445 0)
(0.9927 -0.00840434 0)
(1.0712 -0.0067984 0)
(0.998032 0.00134866 0)
(1.06474 0.00436045 0)
(1.00318 0.00458411 0)
(1.03558 0.00585217 0)
(1.02273 0.00314164 0)
(1.02544 0.000437629 0)
(1.01953 -0.000568337 0)
(1.01178 -0.00664862 0)
(1.01476 0.00340271 0)
(1.00938 -0.00982888 0)
(1.00609 0.00149039 0)
(1.00041 -0.0118896 0)
(0.932607 -0.00903777 0)
(1.0805 0.0110233 0)
(0.976669 -0.00639868 0)
(1.06066 0.00705139 0)
(0.993239 -0.00346769 0)
(1.02976 -0.00608172 0)
(1.00279 -0.00853641 0)
(1.03649 -0.00690597 0)
(1.01609 0.00134142 0)
(1.0431 0.00429367 0)
(1.02178 0.0048816 0)
(1.03107 0.00565426 0)
(1.02935 0.00332533 0)
(1.0229 0.000560899 0)
(1.01982 -0.00024689 0)
(1.00912 -0.0064462 0)
(1.01201 0.00334215 0)
(1.00553 -0.00936405 0)
(1.00203 0.00150712 0)
(0.996127 -0.0105642 0)
(0.953297 -0.00913753 0)
(1.05826 0.0107076 0)
(0.988274 -0.00622188 0)
(1.03803 0.00689779 0)
(1.00206 -0.00317638 0)
(1.01069 -0.00613469 0)
(1.00393 -0.00857934 0)
(1.01214 -0.00711504 0)
(1.01986 0.00116845 0)
(1.03001 0.00419048 0)
(1.02739 0.00496026 0)
(1.03012 0.00557794 0)
(1.02997 0.00353822 0)
(1.02095 0.000764721 0)
(1.01767 0.000104116 0)
(1.00711 -0.00619119 0)
(1.00812 0.00332435 0)
(1.00262 -0.00879381 0)
(0.997715 0.00145718 0)
(0.992857 -0.00902891 0)
(0.969164 -0.00921199 0)
(1.03926 0.0104355 0)
(0.994664 -0.00601921 0)
(1.02125 0.00674972 0)
(1.00461 -0.00290766 0)
(1.00074 -0.0061289 0)
(1.00112 -0.00854628 0)
(0.99773 -0.00735771 0)
(1.01573 0.000869634 0)
(1.02117 0.00402331 0)
(1.02604 0.00488852 0)
(1.02795 0.00553856 0)
(1.02755 0.00378135 0)
(1.01842 0.00101199 0)
(1.01468 0.000449721 0)
(1.00546 -0.00588011 0)
(1.00457 0.00330753 0)
(1.00061 -0.00814249 0)
(0.994612 0.00137449 0)
(0.990687 -0.00746764 0)
(0.980062 -0.00925233 0)
(1.02469 0.0102127 0)
(0.997704 -0.00581584 0)
(1.01051 0.00661753 0)
(1.00461 -0.00268694 0)
(0.99699 -0.00608186 0)
(0.998188 -0.00845263 0)
(0.99049 -0.00758302 0)
(1.0093 0.000515428 0)
(1.01427 0.00379517 0)
(1.02163 0.0047377 0)
(1.024 0.00549551 0)
(1.02354 0.00402905 0)
(1.01549 0.0012632 0)
(1.01172 0.00077314 0)
(1.00404 -0.00552841 0)
(1.00201 0.00325789 0)
(0.999365 -0.00743716 0)
(0.993008 0.00124837 0)
(0.989626 -0.00593491 0)
(0.986975 -0.0092561 0)
(1.01436 0.0100272 0)
(0.999004 -0.00562762 0)
(1.00452 0.00649426 0)
(1.00414 -0.0025172 0)
(0.996569 -0.00601511 0)
(0.996557 -0.00831061 0)
(0.987653 -0.00776241 0)
(1.00341 0.000167999 0)
(1.00861 0.00353539 0)
(1.01616 0.00455056 0)
(1.01901 0.00543762 0)
(1.01887 0.00425036 0)
(1.01239 0.00148954 0)
(1.00908 0.00105771 0)
(1.00277 -0.00515783 0)
(1.00032 0.00315711 0)
(0.998646 -0.00669361 0)
(0.992492 0.00108612 0)
(0.989443 -0.00447774 0)
(0.991219 -0.00922551 0)
(1.00732 0.00986315 0)
(0.999569 -0.00546154 0)
(1.00156 0.00636772 0)
(1.00385 -0.00238907 0)
(0.997508 -0.00594267 0)
(0.99607 -0.00813245 0)
(0.987211 -0.00788188 0)
(0.998776 -0.000132596 0)
(1.00395 0.00327306 0)
(1.01059 0.00435745 0)
(1.01366 0.00535975 0)
(1.01411 0.00442528 0)
(1.00926 0.00167466 0)
(1.0067 0.00127987 0)
(1.00156 -0.00478081 0)
(0.999133 0.00300426 0)
(0.998169 -0.00593041 0)
(0.992533 0.00089554 0)
(0.989753 -0.00312736 0)
(0.993881 -0.00916504 0)
(1.00256 0.00970727 0)
(0.999881 -0.0053177 0)
(1.00016 0.0062308 0)
(1.00368 -0.00229002 0)
(0.998726 -0.00587184 0)
(0.99613 -0.00792954 0)
(0.987878 -0.00793854 0)
(0.995228 -0.000368091 0)
(1.00012 0.00302841 0)
(1.00544 0.00417925 0)
(1.00844 0.00525945 0)
(1.00965 0.00454485 0)
(1.00629 0.0018107 0)
(1.00455 0.00143813 0)
(1.00037 -0.00439654 0)
(0.99818 0.00280356 0)
(0.997741 -0.00516613 0)
(0.992753 0.000684198 0)
(0.990237 -0.00190995 0)
(0.995635 -0.00907963 0)
(0.999311 0.00955129 0)
(1.00011 -0.00519111 0)
(0.999402 0.0060824 0)
(1.00347 -0.00220919 0)
(0.999737 -0.00580648 0)
(0.996292 -0.00771076 0)
(0.988896 -0.00793777 0)
(0.992502 -0.000533964 0)
(0.996989 0.00281019 0)
(1.00104 0.00402528 0)
(1.00375 0.00514203 0)
(1.00575 0.0046024 0)
(1.00366 0.0019033 0)
(1.00267 0.00153188 0)
(0.999281 -0.00400741 0)
(0.99736 0.00256004 0)
(0.997306 -0.00442216 0)
(0.99297 0.000481207 0)
(0.990712 -0.000845761 0)
(0.996819 -0.00897365 0)
(0.9971 0.00939067 0)
(1.0003 -0.00507407 0)
(0.998866 0.00592375 0)
(1.00316 -0.00213834 0)
(1.0004 -0.00574874 0)
(0.996375 -0.00748196 0)
(0.989874 -0.0078898 0)
(0.990482 -0.000633988 0)
(0.99453 0.00261795 0)
(0.99762 0.00389553 0)
(0.999944 0.00501322 0)
(1.00264 0.00459915 0)
(1.00156 0.00196316 0)
(1.00113 0.00156207 0)
(0.998384 -0.00361968 0)
(0.996689 0.00228871 0)
(0.996901 -0.00371516 0)
(0.993145 0.000314809 0)
(0.991114 4.92537e-05 0)
(0.997596 -0.00885067 0)
(0.995663 0.00922269 0)
(1.00043 -0.00495879 0)
(0.998442 0.00575537 0)
(1.0028 -0.00207085 0)
(1.00076 -0.00569952 0)
(0.996367 -0.00724608 0)
(0.990651 -0.00780651 0)
(0.989131 -0.000678952 0)
(0.992752 0.00244663 0)
(0.995235 0.00378374 0)
(0.997198 0.00487904 0)
(1.0004 0.00453894 0)
(1.00005 0.00200486 0)
(0.999991 0.00153984 0)
(0.997747 -0.00323266 0)
(0.996207 0.00200629 0)
(0.996573 -0.00306489 0)
(0.993301 0.000200396 0)
(0.991446 0.000779472 0)
(0.998073 -0.00871347 0)
(0.99481 0.00904518 0)
(1.0005 -0.00483897 0)
(0.998135 0.00557659 0)
(1.00245 -0.00200102 0)
(1.00091 -0.00565905 0)
(0.996317 -0.00700348 0)
(0.991207 -0.00769925 0)
(0.988377 -0.000684181 0)
(0.991622 0.0022907 0)
(0.993775 0.00367965 0)
(0.995467 0.00474706 0)
(0.998957 0.0044283 0)
(0.999087 0.00203892 0)
(0.999217 0.00148189 0)
(0.99736 -0.00285093 0)
(0.995915 0.00173613 0)
(0.996347 -0.00248367 0)
(0.99347 0.000150508 0)
(0.991736 0.00136744 0)
(0.998345 -0.00856413 0)
(0.994371 0.00885611 0)
(1.00053 -0.00471003 0)
(0.99795 0.00538612 0)
(1.00214 -0.00192434 0)
(1.00093 -0.00562729 0)
(0.996265 -0.00675324 0)
(0.991588 -0.00757806 0)
(0.988081 -0.000663704 0)
(0.991024 0.0021459 0)
(0.993014 0.00357381 0)
(0.994533 0.00462172 0)
(0.998127 0.00427796 0)
(0.998533 0.00207174 0)
(0.998728 0.00140579 0)
(0.997167 -0.00248368 0)
(0.995776 0.00150083 0)
(0.996211 -0.00196469 0)
(0.993666 0.000166506 0)
(0.99201 0.00182739 0)
(0.998493 -0.00840419 0)
(0.994192 0.00865396 0)
(1.00052 -0.00456893 0)
(0.997866 0.00518238 0)
(1.00189 -0.00183718 0)
(1.0009 -0.00560438 0)
(0.996229 -0.00649409 0)
(0.991859 -0.0074491 0)
(0.988082 -0.000630306 0)
(0.990794 0.00201176 0)
(0.992699 0.00345826 0)
(0.994115 0.00450911 0)
(0.997696 0.00409869 0)
(0.998234 0.0021043 0)
(0.998422 0.00132482 0)
(0.997094 -0.00213415 0)
(0.99574 0.00131013 0)
(0.996142 -0.0014998 0)
(0.993887 0.000225236 0)
(0.992282 0.00218492 0)
(0.998578 -0.00823458 0)
(0.994153 0.00843755 0)
(1.0005 -0.0044137 0)
(0.997849 0.00496428 0)
(1.00167 -0.00173745 0)
(1.00084 -0.00558951 0)
(0.996209 -0.00622642 0)
(0.992071 -0.00731479 0)
(0.988244 -0.00059427 0)
(0.990776 0.00188905 0)
(0.992628 0.00332803 0)
(0.993975 0.00441217 0)
(0.997485 0.00389877 0)
(0.998067 0.00213885 0)
(0.998215 0.00124686 0)
(0.997085 -0.00181743 0)
(0.995762 0.00118304 0)
(0.996114 -0.00107842 0)
(0.994126 0.000313729 0)
(0.992559 0.00247241 0)
(0.998638 -0.00805563 0)
(0.99418 0.00820588 0)
(1.00047 -0.00424324 0)
(0.997868 0.00473096 0)
(1.00147 -0.00162442 0)
(1.00078 -0.00558146 0)
(0.9962 -0.0059521 0)
(0.992257 -0.00717571 0)
(0.98848 -0.000561318 0)
(0.99086 0.0017784 0)
(0.992672 0.00317821 0)
(0.99396 0.00432991 0)
(0.997377 0.00368709 0)
(0.997959 0.00216897 0)
(0.998057 0.00118335 0)
(0.997107 -0.00154568 0)
(0.995818 0.00111588 0)
(0.996108 -0.000690991 0)
(0.994376 0.000420515 0)
(0.992843 0.00270342 0)
(0.99869 -0.00786758 0)
(0.994234 0.00795865 0)
(1.00044 -0.00405747 0)
(0.997903 0.00448247 0)
(1.00127 -0.0014977 0)
(1.00072 -0.0055805 0)
(0.996198 -0.00567055 0)
(0.992435 -0.007032 0)
(0.988746 -0.000535309 0)
(0.990984 0.00168235 0)
(0.992763 0.00300634 0)
(0.99399 0.00425823 0)
(0.99731 0.0034712 0)
(0.997877 0.00218791 0)
(0.997919 0.00114718 0)
(0.997143 -0.00131465 0)
(0.995893 0.00108348 0)
(0.996117 -0.00032593 0)
(0.994632 0.000520693 0)
(0.993137 0.00288099 0)
(0.99874 -0.00767039 0)
(0.994299 0.00769553 0)
(1.0004 -0.00385639 0)
(0.997945 0.00421955 0)
(1.00108 -0.00135771 0)
(1.00065 -0.00558497 0)
(0.9962 -0.00538337 0)
(0.992611 -0.00688065 0)
(0.989025 -0.000521045 0)
(0.991122 0.00160679 0)
(0.992874 0.00281227 0)
(0.994035 0.00419701 0)
(0.997259 0.00325358 0)
(0.997808 0.00219044 0)
(0.99779 0.00114905 0)
(0.997185 -0.00110991 0)
(0.995985 0.001074 0)
(0.996134 3.3305e-05 0)
(0.994889 0.000616283 0)
(0.993442 0.00300573 0)
(0.998791 -0.00746389 0)
(0.99437 0.00741579 0)
(1.00037 -0.00363916 0)
(0.997991 0.00394166 0)
(1.00089 -0.00120533 0)
(1.00059 -0.00559223 0)
(0.996206 -0.00509578 0)
(0.992788 -0.00671606 0)
(0.989312 -0.000523945 0)
(0.991262 0.00155493 0)
(0.992995 0.00259932 0)
(0.994083 0.00414108 0)
(0.997213 0.0030471 0)
(0.997749 0.00216554 0)
(0.997668 0.00119005 0)
(0.997231 -0.000917696 0)
(0.996095 0.00107629 0)
(0.996158 0.000379961 0)
(0.995142 0.00071886 0)
(0.993759 0.0030742 0)
(0.998843 -0.00724814 0)
(0.994445 0.00711978 0)
(1.00033 -0.0034071 0)
(0.998041 0.00365119 0)
(1.0007 -0.00104262 0)
(1.00053 -0.00560013 0)
(0.996217 -0.00481019 0)
(0.992965 -0.00653621 0)
(0.989605 -0.000546982 0)
(0.991402 0.00152208 0)
(0.993123 0.00237686 0)
(0.994133 0.00407488 0)
(0.997167 0.00286518 0)
(0.997701 0.00211168 0)
(0.997553 0.00126331 0)
(0.997278 -0.000734356 0)
(0.99622 0.00107577 0)
(0.99619 0.000712194 0)
(0.995387 0.000837063 0)
(0.994088 0.00308729 0)
(0.998896 -0.00702324 0)
(0.994527 0.00680796 0)
(1.00029 -0.00316101 0)
(0.998094 0.00334936 0)
(1.00051 -0.000869888 0)
(1.00047 -0.00560673 0)
(0.996233 -0.00453025 0)
(0.993141 -0.00633924 0)
(0.989906 -0.000593849 0)
(0.991543 0.00151125 0)
(0.993258 0.00214398 0)
(0.994188 0.0039988 0)
(0.997119 0.00271198 0)
(0.997665 0.00202264 0)
(0.997445 0.00135974 0)
(0.997323 -0.000546715 0)
(0.996363 0.00106183 0)
(0.996231 0.00103151 0)
(0.995617 0.000977217 0)
(0.994429 0.00304545 0)
(0.99895 -0.00678947 0)
(0.994615 0.00648123 0)
(1.00025 -0.00290185 0)
(0.998151 0.00303753 0)
(1.00032 -0.000689219 0)
(1.00042 -0.0056083 0)
(0.996256 -0.00426234 0)
(0.993316 -0.0061208 0)
(0.990215 -0.000664291 0)
(0.991683 0.00151877 0)
(0.993398 0.00191106 0)
(0.994249 0.00390257 0)
(0.997068 0.00259692 0)
(0.997642 0.00190415 0)
(0.99735 0.00146595 0)
(0.997361 -0.000343578 0)
(0.996523 0.00103876 0)
(0.996287 0.00131139 0)
(0.995827 0.00114831 0)
(0.994778 0.0029593 0)
(0.999004 -0.00654682 0)
(0.99471 0.00613967 0)
(1.0002 -0.00263046 0)
(0.998211 0.00271771 0)
(1.00012 -0.000504775 0)
(1.00036 -0.00559888 0)
(0.996287 -0.0040118 0)
(0.993489 -0.00587686 0)
(0.990531 -0.000756446 0)
(0.991825 0.0015336 0)
(0.993542 0.00169079 0)
(0.994319 0.00377515 0)
(0.997014 0.00251772 0)
(0.997631 0.00177212 0)
(0.99727 0.00156706 0)
(0.997393 -0.00012442 0)
(0.996696 0.0010129 0)
(0.99636 0.00154273 0)
(0.996017 0.00135186 0)
(0.995128 0.002856 0)
(0.999059 -0.00629593 0)
(0.994813 0.00578465 0)
(1.00016 -0.00234975 0)
(0.998275 0.00239415 0)
(0.999931 -0.000320937 0)
(1.00031 -0.0055735 0)
(0.996327 -0.0037832 0)
(0.993659 -0.00560376 0)
(0.990856 -0.000866633 0)
(0.99197 0.00155599 0)
(0.993689 0.00148552 0)
(0.9944 0.00361749 0)
(0.996957 0.00247269 0)
(0.99763 0.00164131 0)
(0.997209 0.00165446 0)
(0.997416 0.00011758 0)
(0.996877 0.000987888 0)
(0.996455 0.00172687 0)
(0.996187 0.00157573 0)
(0.995471 0.00276213 0)
(0.999114 -0.00603719 0)
(0.994924 0.00541762 0)
(1.00012 -0.00206277 0)
(0.998343 0.00207053 0)
(0.99974 -0.000139669 0)
(1.00026 -0.00552842 0)
(0.996379 -0.00358585 0)
(0.993824 -0.00530136 0)
(0.991188 -0.000991318 0)
(0.992119 0.00157718 0)
(0.993836 0.0013068 0)
(0.994496 0.00342821 0)
(0.9969 0.00245715 0)
(0.997637 0.00151571 0)
(0.997169 0.00172031 0)
(0.997431 0.000377642 0)
(0.997061 0.000973513 0)
(0.996576 0.00185326 0)
(0.99634 0.00180566 0)
(0.995798 0.00269638 0)
(0.99917 -0.00577111 0)
(0.995044 0.00504006 0)
(1.00007 -0.00177286 0)
(0.998415 0.00175028 0)
(0.999553 3.40931e-05 0)
(1.00021 -0.00545783 0)
(0.996443 -0.00342441 0)
(0.993985 -0.0049759 0)
(0.991525 -0.00112113 0)
(0.992273 0.00158913 0)
(0.993981 0.00116005 0)
(0.994607 0.00321204 0)
(0.996844 0.00245887 0)
(0.99765 0.00140793 0)
(0.997155 0.00175234 0)
(0.997439 0.000640072 0)
(0.997241 0.000977975 0)
(0.996722 0.00192504 0)
(0.996485 0.00202179 0)
(0.996102 0.00266186 0)
(0.999226 -0.00549918 0)
(0.995174 0.00465561 0)
(1.00003 -0.00148458 0)
(0.998492 0.00144003 0)
(0.99937 0.000195091 0)
(1.00015 -0.00535271 0)
(0.996521 -0.0032959 0)
(0.994142 -0.00463128 0)
(0.991867 -0.00125377 0)
(0.992436 0.00158152 0)
(0.994123 0.00104867 0)
(0.994735 0.00297779 0)
(0.996793 0.0024682 0)
(0.997664 0.00133333 0)
(0.997165 0.00175153 0)
(0.997445 0.000898451 0)
(0.997411 0.00101338 0)
(0.996891 0.00194946 0)
(0.996626 0.0022113 0)
(0.996375 0.00266825 0)
(0.999283 -0.00522211 0)
(0.995312 0.00426538 0)
(0.999993 -0.00120053 0)
(0.998573 0.00114418 0)
(0.999195 0.000342728 0)
(1.00009 -0.00521191 0)
(0.996612 -0.00320026 0)
(0.994296 -0.00427133 0)
(0.992209 -0.00138035 0)
(0.992609 0.00154982 0)
(0.994262 0.000971561 0)
(0.994876 0.0027261 0)
(0.996752 0.00248006 0)
(0.997678 0.00129079 0)
(0.9972 0.00172347 0)
(0.997453 0.00113833 0)
(0.997565 0.00108172 0)
(0.99708 0.00193927 0)
(0.996775 0.00235913 0)
(0.996618 0.00271283 0)
(0.999339 -0.00494052 0)
(0.995461 0.00387195 0)
(0.999955 -0.000927947 0)
(0.998657 0.000868757 0)
(0.999028 0.000467664 0)
(1.00003 -0.00503492 0)
(0.996718 -0.00313512 0)
(0.994449 -0.0039063 0)
(0.99255 -0.00148617 0)
(0.992794 0.00149565 0)
(0.994394 0.000929511 0)
(0.995033 0.00246764 0)
(0.996725 0.00248247 0)
(0.99769 0.00128665 0)
(0.997258 0.00167936 0)
(0.99747 0.00134383 0)
(0.997702 0.00117451 0)
(0.997281 0.00191445 0)
(0.996935 0.00245355 0)
(0.996831 0.00277713 0)
(0.999395 -0.00465624 0)
(0.99562 0.00347921 0)
(0.99992 -0.000671204 0)
(0.998744 0.000617249 0)
(0.998871 0.000568742 0)
(0.999959 -0.00482241 0)
(0.996838 -0.00309353 0)
(0.994601 -0.00354666 0)
(0.992888 -0.00156638 0)
(0.992992 0.00141116 0)
(0.994522 0.000919145 0)
(0.995199 0.00221987 0)
(0.996716 0.00246947 0)
(0.997698 0.00131432 0)
(0.997334 0.00162226 0)
(0.997499 0.00150635 0)
(0.997822 0.00129229 0)
(0.997488 0.00189197 0)
(0.997113 0.00249777 0)
(0.997023 0.00284976 0)
(0.999451 -0.00437174 0)
(0.995789 0.00309255 0)
(0.999889 -0.000435177 0)
(0.998832 0.000397645 0)
(0.998726 0.000645298 0)
(0.999887 -0.00458205 0)
(0.996971 -0.00306355 0)
(0.994757 -0.00320408 0)
(0.993219 -0.00161435 0)
(0.993203 0.00130373 0)
(0.994646 0.000930652 0)
(0.995375 0.00199115 0)
(0.996727 0.00243527 0)
(0.997703 0.00137006 0)
(0.997423 0.00156905 0)
(0.997546 0.00162686 0)
(0.997929 0.00142812 0)
(0.997691 0.00188409 0)
(0.997307 0.00249427 0)
(0.997202 0.00290695 0)
(0.999506 -0.00408737 0)
(0.995968 0.00271397 0)
(0.999864 -0.000223715 0)
(0.998922 0.000208675 0)
(0.998593 0.000696758 0)
(0.999811 -0.00431455 0)
(0.997116 -0.0030408 0)
(0.994916 -0.00288492 0)
(0.993543 -0.00162879 0)
(0.993429 0.00117801 0)
(0.994769 0.000957025 0)
(0.995555 0.00178367 0)
(0.996761 0.00237427 0)
(0.997709 0.00144235 0)
(0.997521 0.00152156 0)
(0.997612 0.00170767 0)
(0.998028 0.0015606 0)
(0.997882 0.0018977 0)
(0.997515 0.00245912 0)
(0.99738 0.00292996 0)
(0.99956 -0.0038057 0)
(0.996155 0.00234907 0)
(0.999846 -4.24827e-05 0)
(0.999013 5.1887e-05 0)
(0.998474 0.000724862 0)
(0.99973 -0.00402643 0)
(0.997271 -0.00301652 0)
(0.995083 -0.0025923 0)
(0.993859 -0.00161247 0)
(0.993669 0.00103901 0)
(0.994891 0.00098951 0)
(0.995737 0.00160237 0)
(0.996818 0.00229533 0)
(0.997714 0.00152221 0)
(0.997621 0.00148408 0)
(0.997699 0.00174736 0)
(0.998125 0.00167019 0)
(0.998059 0.00193237 0)
(0.997727 0.00242267 0)
(0.997563 0.00291408 0)
(0.999612 -0.00352894 0)
(0.99635 0.00200414 0)
(0.999835 0.000105788 0)
(0.999104 -6.82692e-05 0)
(0.99837 0.000731327 0)
(0.999646 -0.00372751 0)
(0.997434 -0.00297904 0)
(0.995256 -0.00233051 0)
(0.994165 -0.00156967 0)
(0.993923 0.000900213 0)
(0.995016 0.00102974 0)
(0.995918 0.001454 0)
(0.996898 0.00219269 0)
(0.997724 0.00161153 0)
(0.99772 0.00147511 0)
(0.997801 0.00175338 0)
(0.998227 0.00175711 0)
(0.998227 0.00197418 0)
(0.997937 0.00240064 0)
(0.997752 0.00286385 0)
(0.999664 -0.00325837 0)
(0.99655 0.00168096 0)
(0.999833 0.000223186 0)
(0.999196 -0.000159753 0)
(0.998279 0.000724729 0)
(0.99956 -0.00342291 0)
(0.997602 -0.00292518 0)
(0.995438 -0.00209301 0)
(0.994463 -0.00150305 0)
(0.994191 0.00077209 0)
(0.995147 0.00106266 0)
(0.996094 0.00133112 0)
(0.997002 0.00207128 0)
(0.997744 0.00169723 0)
(0.997812 0.00148712 0)
(0.997915 0.00173472 0)
(0.998337 0.00181751 0)
(0.998387 0.00201485 0)
(0.998137 0.00239339 0)
(0.997941 0.00280789 0)
(0.999713 -0.00299692 0)
(0.996756 0.00138703 0)
(0.999839 0.00030444 0)
(0.999289 -0.000224286 0)
(0.998204 0.000704727 0)
(0.999474 -0.00312303 0)
(0.997776 -0.00285448 0)
(0.995628 -0.00187547 0)
(0.994752 -0.00142271 0)
(0.994469 0.00065009 0)
(0.995284 0.00109914 0)
(0.996266 0.00123145 0)
(0.997129 0.00193425 0)
(0.997777 0.00176465 0)
(0.997894 0.00152688 0)
(0.998036 0.00171399 0)
(0.998458 0.00183846 0)
(0.998546 0.00204169 0)
(0.998332 0.00238406 0)
(0.998123 0.00276316 0)
(0.999761 -0.00274566 0)
(0.996963 0.00112625 0)
(0.999855 0.000350585 0)
(0.999382 -0.000267399 0)
(0.998142 0.000676048 0)
(0.999388 -0.00283194 0)
(0.997954 -0.00276758 0)
(0.995826 -0.00167445 0)
(0.99503 -0.00132981 0)
(0.99476 0.000525801 0)
(0.99543 0.00114304 0)
(0.996428 0.00116816 0)
(0.997276 0.00177895 0)
(0.997831 0.00180063 0)
(0.997971 0.00159557 0)
(0.998154 0.0017022 0)
(0.998586 0.00183143 0)
(0.998707 0.00205066 0)
(0.998523 0.00236682 0)
(0.998304 0.00272107 0)
(0.999807 -0.00250832 0)
(0.99717 0.000905655 0)
(0.999879 0.000362863 0)
(0.999477 -0.000299048 0)
(0.998094 0.000650575 0)
(0.999304 -0.00255439 0)
(0.998135 -0.00266754 0)
(0.996032 -0.00148437 0)
(0.995296 -0.00122687 0)
(0.995061 0.000401348 0)
(0.995589 0.00118468 0)
(0.996577 0.00114699 0)
(0.997435 0.00161098 0)
(0.997913 0.00179942 0)
(0.998046 0.00168109 0)
(0.998264 0.0017084 0)
(0.99872 0.00180488 0)
(0.998873 0.00203415 0)
(0.998713 0.00234627 0)
(0.998486 0.00267257 0)
(0.999851 -0.00228577 0)
(0.997374 0.000726123 0)
(0.999909 0.000340859 0)
(0.999574 -0.000323382 0)
(0.998059 0.00063072 0)
(0.999221 -0.00229272 0)
(0.99832 -0.00256444 0)
(0.996247 -0.0012964 0)
(0.99555 -0.00111092 0)
(0.995371 0.000275117 0)
(0.995766 0.00121888 0)
(0.996711 0.0011704 0)
(0.9976 0.00145513 0)
(0.998028 0.00174853 0)
(0.998127 0.00175278 0)
(0.998359 0.00174712 0)
(0.99885 0.0017823 0)
(0.999045 0.00198738 0)
(0.998905 0.00231574 0)
(0.998671 0.00261121 0)
(0.999893 -0.00207796 0)
(0.997572 0.000584127 0)
(0.999944 0.000294994 0)
(0.999675 -0.000347754 0)
(0.998037 0.000618619 0)
(0.999137 -0.00203999 0)
(0.998507 -0.00246291 0)
(0.996473 -0.00110937 0)
(0.995787 -0.000969005 0)
(0.995687 0.000146122 0)
(0.995967 0.00122241 0)
(0.996833 0.00123849 0)
(0.997759 0.00133948 0)
(0.998171 0.00165012 0)
(0.998228 0.00179425 0)
(0.998448 0.00180798 0)
(0.998966 0.00178304 0)
(0.999219 0.00191969 0)
(0.999102 0.00225887 0)
(0.99886 0.00254291 0)
(0.999932 -0.00188719 0)
(0.997762 0.000478783 0)
(0.99998 0.000235767 0)
(0.999781 -0.000381754 0)
(0.998028 0.000620837 0)
(0.999052 -0.00179319 0)
(0.998697 -0.00237067 0)
(0.996711 -0.000935919 0)
(0.996006 -0.000792697 0)
(0.996001 2.71739e-05 0)
(0.996198 0.00118351 0)
(0.996949 0.00133261 0)
(0.997899 0.00127626 0)
(0.998335 0.00152177 0)
(0.998355 0.00179685 0)
(0.998535 0.001869 0)
(0.999061 0.00180854 0)
(0.999383 0.00186029 0)
(0.999307 0.00216758 0)
(0.999053 0.00246425 0)
(0.999969 -0.00171351 0)
(0.997943 0.000404853 0)
(1.00002 0.000169147 0)
(0.999891 -0.00042951 0)
(0.998034 0.000630863 0)
(0.998962 -0.00154093 0)
(0.998885 -0.00229372 0)
(0.996965 -0.00078731 0)
(0.996206 -0.000570777 0)
(0.996304 -6.93338e-05 0)
(0.996459 0.00109148 0)
(0.997071 0.00142883 0)
(0.998014 0.00127558 0)
(0.998507 0.00139555 0)
(0.998516 0.00173835 0)
(0.998633 0.00191191 0)
(0.999141 0.00185259 0)
(0.999525 0.00182931 0)
(0.99951 0.00206179 0)
(0.999254 0.00236172 0)
(1 -0.0015562 0)
(0.998113 0.000356255 0)
(1.00005 0.000105887 0)
(1.00001 -0.00049418 0)
(0.998056 0.000638753 0)
(0.998866 -0.00127674 0)
(0.999068 -0.00222374 0)
(0.997243 -0.000671769 0)
(0.99639 -0.000321478 0)
(0.996581 -0.000126189 0)
(0.996749 0.000948768 0)
(0.997213 0.0014951 0)
(0.998105 0.00133286 0)
(0.998668 0.00130465 0)
(0.998703 0.0016346 0)
(0.998756 0.00192084 0)
(0.999212 0.00190832 0)
(0.999641 0.00182284 0)
(0.9997 0.00196365 0)
(0.999456 0.00224123 0)
(1.00003 -0.0014146 0)
(0.998271 0.000325407 0)
(1.00007 5.67514e-05 0)
(1.00012 -0.000573817 0)
(0.998097 0.000640593 0)
(0.998763 -0.00100368 0)
(0.99924 -0.00214538 0)
(0.997545 -0.000608158 0)
(0.996563 -5.00475e-05 0)
(0.996823 -0.000109432 0)
(0.997059 0.00077404 0)
(0.997387 0.00150917 0)
(0.998181 0.0014252 0)
(0.998804 0.00126098 0)
(0.998907 0.00151379 0)
(0.998913 0.00187381 0)
(0.999286 0.00195397 0)
(0.999727 0.00184748 0)
(0.999866 0.0018853 0)
(0.999655 0.00211571 0)
(1.00006 -0.00128643 0)
(0.998417 0.000305706 0)
(1.00008 2.48092e-05 0)
(1.00024 -0.000664616 0)
(0.998158 0.000629878 0)
(0.998652 -0.000711956 0)
(0.999391 -0.00204814 0)
(0.997873 -0.000610068 0)
(0.99674 0.000223874 0)
(0.997017 -3.49148e-06 0)
(0.997371 0.000600464 0)
(0.997603 0.001455 0)
(0.998255 0.00152419 0)
(0.998908 0.00127679 0)
(0.999107 0.00140156 0)
(0.999102 0.00177813 0)
(0.999383 0.00195874 0)
(0.999792 0.00189086 0)
(0.999997 0.00184411 0)
(0.999843 0.00199024 0)
(1.00008 -0.00117005 0)
(0.998551 0.000292696 0)
(1.00007 1.41036e-05 0)
(1.00036 -0.000759357 0)
(0.998245 0.000592787 0)
(0.998537 -0.000410374 0)
(0.999511 -0.00191633 0)
(0.998225 -0.000664621 0)
(0.996936 0.000453455 0)
(0.997164 0.000182674 0)
(0.997662 0.000467798 0)
(0.997859 0.0013351 0)
(0.998347 0.00159692 0)
(0.99898 0.00134506 0)
(0.999285 0.00132519 0)
(0.999313 0.001654 0)
(0.999514 0.00191831 0)
(0.999855 0.00192113 0)
(1.00009 0.00184569 0)
(1.00001 0.00187786 0)
(1.0001 -0.00106292 0)
(0.998675 0.000276985 0)
(1.00005 2.86326e-05 0)
(1.00046 -0.000852499 0)
(0.998357 0.000524438 0)
(0.998422 -0.000117106 0)
(0.99959 -0.00173392 0)
(0.998591 -0.000758565 0)
(0.997164 0.000617173 0)
(0.997271 0.000428378 0)
(0.997913 0.000405123 0)
(0.998143 0.00117722 0)
(0.998473 0.00162382 0)
(0.999031 0.00143804 0)
(0.999424 0.00130172 0)
(0.999528 0.00152293 0)
(0.99968 0.00182792 0)
(0.999935 0.00191536 0)
(1.00015 0.00186482 0)
(1.00013 0.00180408 0)
(1.00011 -0.000961094 0)
(0.998791 0.000254454 0)
(1.00002 6.52673e-05 0)
(1.00056 -0.0009341 0)
(0.998499 0.000426598 0)
(0.998316 0.000154347 0)
(0.999622 -0.00149994 0)
(0.998958 -0.000870836 0)
(0.997437 0.00068528 0)
(0.997353 0.000702337 0)
(0.998106 0.000430156 0)
(0.99844 0.00100462 0)
(0.998641 0.00159665 0)
(0.999077 0.00153587 0)
(0.999521 0.00132559 0)
(0.999723 0.00141972 0)
(0.999871 0.00169954 0)
(1.00005 0.00186244 0)
(1.0002 0.00187031 0)
(1.0002 0.00178083 0)
(1.00012 -0.000864653 0)
(0.9989 0.000223413 0)
(0.999969 0.000121017 0)
(1.00064 -0.000989086 0)
(0.998666 0.000297527 0)
(0.998228 0.000395281 0)
(0.999604 -0.00121339 0)
(0.999305 -0.000969144 0)
(0.99776 0.000653675 0)
(0.997435 0.000960896 0)
(0.998234 0.000544477 0)
(0.998724 0.000858779 0)
(0.998855 0.00150329 0)
(0.999135 0.00161873 0)
(0.999579 0.00138567 0)
(0.999882 0.00135303 0)
(1.00007 0.0015699 0)
(1.0002 0.00176022 0)
(1.00027 0.00184107 0)
(1.00023 0.00178253 0)
(1.00013 -0.00077023 0)
(0.999005 0.000178852 0)
(0.999907 0.000187834 0)
(1.00069 -0.00101144 0)
(0.998857 0.000145665 0)
(0.998168 0.000595745 0)
(0.999536 -0.000885265 0)
(0.999612 -0.00101966 0)
(0.99813 0.000539045 0)
(0.99754 0.00116581 0)
(0.998302 0.00072177 0)
(0.998966 0.000769783 0)
(0.999107 0.00136692 0)
(0.999227 0.00165505 0)
(0.999606 0.00148053 0)
(0.999995 0.00132067 0)
(1.00025 0.0014564 0)
(1.00036 0.0016351 0)
(1.00038 0.00176165 0)
(1.00025 0.00177395 0)
(1.00013 -0.000676389 0)
(0.999106 0.000123629 0)
(0.999837 0.000258929 0)
(1.00072 -0.000994838 0)
(0.999067 -2.06124e-05 0)
(0.998146 0.000733984 0)
(0.99943 -0.00053734 0)
(0.999861 -0.00100285 0)
(0.998534 0.000370682 0)
(0.997688 0.00129096 0)
(0.998325 0.000936256 0)
(0.999152 0.000748263 0)
(0.999375 0.00121982 0)
(0.999366 0.00162633 0)
(0.999619 0.00157918 0)
(1.00005 0.00133989 0)
(1.0004 0.001349 0)
(1.00053 0.00150981 0)
(1.00051 0.00163857 0)
(1.0003 0.00172284 0)
(1.00012 -0.00058489 0)
(0.999206 5.9197e-05 0)
(0.999766 0.000328653 0)
(1.00072 -0.000936273 0)
(0.999285 -0.000192948 0)
(0.99817 0.000797514 0)
(0.999299 -0.000193044 0)
(1.00004 -0.000906408 0)
(0.998951 0.000177991 0)
(0.997894 0.00131485 0)
(0.998324 0.00116057 0)
(0.999267 0.00079683 0)
(0.999633 0.00108407 0)
(0.999554 0.00154046 0)
(0.99965 0.00163963 0)
(1.00006 0.00141112 0)
(1.00051 0.00126901 0)
(1.00069 0.00137195 0)
(1.00067 0.00150309 0)
(1.00039 0.00161567 0)
(1.00012 -0.000493184 0)
(0.999304 -1.04977e-05 0)
(0.9997 0.000385961 0)
(1.00069 -0.000836182 0)
(0.999502 -0.000356087 0)
(0.998243 0.000797405 0)
(0.999163 0.000120966 0)
(1.00014 -0.000732967 0)
(0.999354 1.36773e-06 0)
(0.998166 0.00123375 0)
(0.99833 0.00135288 0)
(0.999312 0.000905416 0)
(0.999855 0.000977916 0)
(0.999778 0.00141378 0)
(0.999721 0.0016462 0)
(1.00003 0.001492 0)
(1.00055 0.00125491 0)
(1.00083 0.00122746 0)
(1.00083 0.00135751 0)
(1.00052 0.00147778 0)
(1.00011 -0.000404771 0)
(0.999401 -7.64095e-05 0)
(0.999643 0.000422997 0)
(1.00063 -0.000698851 0)
(0.999708 -0.000490766 0)
(0.998365 0.00073707 0)
(0.999038 0.00040438 0)
(1.00017 -0.000511197 0)
(0.999714 -0.000128891 0)
(0.998494 0.00107334 0)
(0.99837 0.00147347 0)
(0.999296 0.00105749 0)
(1.00002 0.000920664 0)
(1.00002 0.00125975 0)
(0.999841 0.00159414 0)
(0.999997 0.00154464 0)
(1.00051 0.00129212 0)
(1.00091 0.0011248 0)
(1.00098 0.00118872 0)
(1.00067 0.00133027 0)
(1.00009 -0.000321453 0)
(0.999495 -0.000133982 0)
(0.999602 0.000437022 0)
(1.00055 -0.000540715 0)
(0.999891 -0.000582015 0)
(0.998534 0.000626903 0)
(0.998941 0.000629935 0)
(1.00014 -0.000257732 0)
(1.00001 -0.00019682 0)
(0.998861 0.000873965 0)
(0.998469 0.00150382 0)
(0.999246 0.00121293 0)
(1.0001 0.000931489 0)
(1.00025 0.00111037 0)
(1.00001 0.0014753 0)
(0.999994 0.00155698 0)
(1.00043 0.00133769 0)
(1.0009 0.00109258 0)
(1.00111 0.00102874 0)
(1.00085 0.00116482 0)
(1.00008 -0.000243296 0)
(0.999586 -0.000179759 0)
(0.99958 0.000426551 0)
(1.00045 -0.000376057 0)
(1.00004 -0.000625019 0)
(0.998739 0.000491207 0)
(0.998885 0.000777238 0)
(1.00005 -1.46778e-06 0)
(1.00023 -0.000185115 0)
(0.99924 0.000667916 0)
(0.998631 0.0014489 0)
(0.999193 0.00134372 0)
(1.00012 0.000985112 0)
(1.00044 0.00100118 0)
(1.00022 0.00131105 0)
(1.00004 0.00151257 0)
(1.00033 0.00137482 0)
(1.00082 0.00111185 0)
(1.00117 0.000929393 0)
(1.00104 0.000992263 0)
(1.00006 -0.000173831 0)
(0.99967 -0.000208123 0)
(0.999578 0.000392868 0)
(1.00034 -0.000214722 0)
(1.00016 -0.000614699 0)
(0.998969 0.000343899 0)
(0.998876 0.000854369 0)
(0.999945 0.000241156 0)
(1.00038 -0.000106318 0)
(0.999602 0.000491289 0)
(0.99886 0.00131682 0)
(0.999161 0.00142726 0)
(1.00007 0.00106766 0)
(1.00055 0.000935431 0)
(1.00043 0.00114842 0)
(1.00015 0.00140391 0)
(1.00027 0.00138313 0)
(1.00069 0.00115557 0)
(1.00114 0.000909815 0)
(1.00118 0.000858298 0)
(1.00005 -0.000113177 0)
(0.999747 -0.000218755 0)
(0.999596 0.000344005 0)
(1.00023 -6.94714e-05 0)
(1.00024 -0.00055435 0)
(0.999208 0.000203145 0)