/*--------------------------------*- C++ -*----------------------------------*\
| =========                 |                                                 |
| \\      /  F ield         | OpenFOAM: The Open Source CFD Toolbox           |
|  \\    /   O peration     | Version:  2106                                  |
|   \\  /    A nd           | Website:  www.openfoam.com                      |
|    \\/     M anipulation  |                                                 |
\*---------------------------------------------------------------------------*/
FoamFile
{
    version     2.0;
    format      ascii;
    arch        "LSB;label=32;scalar=64";
    class       volScalarField;
    location    "0.16";
    object      p;
}
// * * * * * * * * * * * * * * * * * * * * * * * * * * * * * * * * * * * * * //

dimensions      [0 2 -2 0 0 0 0];

internalField   nonuniform List<scalar> 
9600
(
-7.48336e-11
-0.000369487
0.000670538
0.00129698
-6.50401e-05
0.000672919
0.000867668
0.00160659
0.00225734
0.00221572
0.0020708
0.00327931
0.00434298
0.00536793
0.00558422
0.00709978
0.00942345
0.0103447
0.0130446
0.0188105
1.13836e-06
-0.000372291
0.000670974
0.00129684
-6.15562e-05
0.000667686
0.000867933
0.00160601
0.00225901
0.00220704
0.00207972
0.00328603
0.00433601
0.00535445
0.0055925
0.00707901
0.00943211
0.0102351
0.0130678
0.0179785
2.50391e-06
-0.000375228
0.000670018
0.00129713
-5.53642e-05
0.000658731
0.000869219
0.00160651
0.00225761
0.00219889
0.00209245
0.00328916
0.00433171
0.00533514
0.00560059
0.00704933
0.00943105
0.0101321
0.0130586
0.0171932
4.02889e-06
-0.000376349
0.000666074
0.00129793
-4.51529e-05
0.000645641
0.000871398
0.00160956
0.00225236
0.00219317
0.00210617
0.00329084
0.00433251
0.00530933
0.00560463
0.0070148
0.00942323
0.0100368
0.0130061
0.0166476
5.95745e-06
-0.000375783
0.000658919
0.00129947
-3.0128e-05
0.000627971
0.000874884
0.00161499
0.00224426
0.00218911
0.00212151
0.00329158
0.00433451
0.00527741
0.0056076
0.00697556
0.00941789
0.00993208
0.0129211
0.0160651
8.26349e-06
-0.000373883
0.00064915
0.00130192
-1.07865e-05
0.000606241
0.000880035
0.00162205
0.00223475
0.00218601
0.00213825
0.00329125
0.00433609
0.00524254
0.00560996
0.00693415
0.00941097
0.00982101
0.012805
0.0155215
1.08143e-05
-0.000370967
0.000637735
0.00130534
1.16488e-05
0.000581585
0.000886656
0.0016301
0.00222502
0.00218287
0.00215604
0.00329028
0.00433729
0.0052064
0.00561143
0.00689138
0.00939719
0.00971063
0.0126538
0.0150075
1.35012e-05
-0.000367355
0.000625665
0.00130962
3.60495e-05
0.000555155
0.000894197
0.00163868
0.0022156
0.0021789
0.00217482
0.00328901
0.00433816
0.00516968
0.00561158
0.00684719
0.00937456
0.00960191
0.012465
0.01452
1.62538e-05
-0.000363314
0.000613681
0.00131457
6.1745e-05
0.00052785
0.000902156
0.00164735
0.00220652
0.00217359
0.0021945
0.00328747
0.0043386
0.00513283
0.00560954
0.00680238
0.00934141
0.00949465
0.0122397
0.0140561
1.90298e-05
-0.000359051
0.000602183
0.00131994
8.84487e-05
0.000500293
0.000910285
0.00165573
0.00219764
0.00216661
0.00221488
0.00328572
0.0043384
0.00509626
0.00560441
0.00675806
0.00929592
0.00938859
0.0119804
0.0136111
2.18221e-05
-0.000354725
0.000591291
0.00132548
0.000116038
0.000473279
0.00091854
0.00166353
0.00218883
0.00215775
0.00223575
0.00328389
0.00433708
0.0050605
0.0055953
0.00671486
0.00923667
0.00928315
0.0116909
0.0131789
2.46461e-05
-0.000350468
0.000580989
0.001331
0.000144396
0.000446957
0.000926924
0.00167059
0.00218005
0.00214699
0.00225687
0.00328216
0.00433399
0.00502599
0.00558133
0.00667311
0.00916278
0.00917681
0.0113758
0.0127533
2.75155e-05
-0.000346393
0.000571242
0.00133641
0.000173355
0.000421356
0.000935387
0.0016769
0.00217136
0.00213448
0.00227793
0.00328085
0.00432837
0.00499291
0.0055618
0.00663281
0.0090739
0.00906715
0.0110407
0.0123302
3.04418e-05
-0.000342584
0.00056203
0.00134167
0.000202722
0.000396333
0.000943801
0.00168251
0.00216285
0.00212052
0.00229856
0.00328035
0.00431942
0.00496138
0.00553634
0.00659307
0.00897036
0.00895141
0.010691
0.011907
3.34433e-05
-0.000339108
0.000553348
0.00134675
0.000232307
0.000371698
0.000952015
0.0016875
0.00215453
0.0021055
0.00231828
0.00328104
0.00430654
0.00493138
0.00550477
0.00655244
0.00885337
0.00882652
0.0103318
0.0114825
3.65478e-05
-0.000336033
0.000545196
0.00135168
0.000261948
0.000347306
0.000959884
0.00169199
0.00214629
0.00208983
0.00233655
0.00328326
0.00428929
0.00490268
0.00546724
0.00650906
0.00872479
0.00868985
0.00996691
0.0110571
3.97933e-05
-0.000333431
0.000537573
0.00135645
0.000291504
0.000323096
0.00096727
0.00169608
0.00213797
0.0020739
0.0023528
0.00328727
0.00426736
0.00487485
0.00542441
0.0064604
0.0085867
0.00853987
0.00959877
0.0106318
4.32258e-05
-0.000331383
0.000530471
0.0013611
0.000320858
0.000299083
0.000974025
0.00169988
0.00212933
0.00205816
0.00236649
0.00329323
0.00424076
0.00484696
0.00537735
0.0064039
0.00844016
0.00837666
0.00922889
0.0102077
4.69015e-05
-0.000329976
0.000523868
0.00136564
0.000349906
0.000275334
0.000979991
0.00170355
0.00212005
0.00204299
0.00237726
0.00330096
0.00420986
0.00481753
0.0053276
0.00633755
0.00828499
0.00820248
0.00885805
0.00978515
5.08906e-05
-0.000329307
0.000517723
0.00137012
0.000378536
0.000251964
0.000984964
0.00170731
0.00210974
0.00202859
0.00238487
0.00331014
0.0041753
0.00478474
0.00527644
0.00626011
0.00812071
0.00802014
0.00848645
0.0093642
5.52723e-05
-0.000329477
0.00051197
0.00137457
0.000406619
0.00022913
0.000988702
0.00171138
0.00209809
0.00201515
0.00238912
0.00332041
0.00413814
0.00474648
0.0052241
0.00617172
0.00794663
0.00783131
0.00811508
0.00894513
6.01351e-05
-0.000330588
0.000506516
0.0013791
0.000434011
0.000207004
0.000990935
0.00171599
0.00208482
0.00200275
0.00239
0.00333074
0.00409977
0.00470113
0.00517002
0.00607389
0.00776167
0.00763695
0.00774623
0.00852743
6.55829e-05
-0.000332743
0.000501226
0.00138378
0.000460574
0.000185798
0.00099132
0.00172133
0.00206978
0.00199125
0.00238796
0.00333968
0.0040614
0.00464782
0.00511312
0.00596842
0.00756501
0.0074376
0.00738242
0.00810997
7.17267e-05
-0.000336038
0.000495922
0.00138875
0.000486158
0.000165757
0.000989532
0.00172745
0.00205296
0.00198027
0.00238374
0.00334574
0.00402375
0.00458628
0.00505144
0.00585655
0.0073569
0.00723316
0.00702592
0.0076923
7.86804e-05
-0.000340561
0.000490384
0.00139414
0.000510586
0.000147116
0.000985319
0.00173432
0.0020345
0.00196925
0.00237812
0.00334765
0.00398689
0.0045172
0.00498268
0.0057386
0.00713887
0.00702351
0.00667906
0.00727458
8.65625e-05
-0.000346377
0.000484337
0.00140013
0.000533655
0.00013014
0.00097848
0.00174175
0.00201474
0.00195732
0.00237209
0.00334462
0.00394982
0.00444182
0.0049057
0.00561447
0.00691253
0.00680898
0.00634388
0.00685676
9.5503e-05
-0.000353536
0.000477434
0.00140696
0.000555158
0.000115023
0.00096894
0.00174946
0.00199435
0.00194325
0.00236601
0.00333625
0.00391128
0.00436109
0.00482029
0.00548405
0.0066784
0.00659017
0.00602293
0.0064394
0.00010561
-0.000362065
0.000469318
0.00141487
0.000574935
0.000101822
0.000956731
0.00175696
0.00197416
0.00192584
0.00235953
0.003323
0.0038699
0.00427515
0.00472693
0.00534768
0.00643646
0.0063669
0.00571973
0.00602561
0.000116978
-0.000371938
0.000459547
0.00142411
0.000592854
9.05439e-05
0.000942078
0.00176346
0.00195504
0.00190465
0.00235209
0.00330565
0.00382393
0.00418369
0.00462623
0.00520594
0.00618767
0.00613759
0.00543572
0.00562112
0.000129745
-0.000383063
0.000447489
0.00143492
0.000608888
8.11059e-05
0.000925432
0.00176783
0.00193788
0.00187965
0.00234238
0.00328518
0.00377259
0.00408588
0.00451852
0.00505963
0.00593417
0.00590019
0.00516847
0.00523193
0.000144002
-0.000395304
0.000432544
0.00144751
0.000623177
7.31616e-05
0.000907365
0.00176899
0.00192313
0.00185079
0.0023287
0.0032624
0.00371547
0.0039801
0.00440371
0.0049104
0.00567777
0.00565326
0.00491433
0.00486238
0.000159745
-0.000408457
0.00041419
0.00146204
0.000635962
6.60531e-05
0.000888747
0.00176599
0.00191061
0.00181929
0.00230908
0.00323723
0.00363056
0.00386473
0.00428037
0.00476063
0.00542077
0.00539624
0.00467039
0.00451459
0.000176974
-0.000422241
0.000391772
0.00147855
0.000647684
5.90539e-05
0.000870635
0.00175802
0.00189955
0.00178711
0.00228185
0.0032092
0.00356692
0.00373959
0.00414527
0.00461175
0.0051679
0.00512959
0.00443306
0.00418877
0.000195712
-0.000436315
0.000364511
0.0014969
0.000659132
5.11735e-05
0.000853865
0.00174474
0.00188863
0.00175624
0.00224643
0.00317593
0.00350528
0.00360635
0.00399525
0.00446212
0.00492523
0.00485637
0.00419741
0.00388424
0.000215863
-0.000450217
0.000331767
0.00151672
0.000671341
4.11123e-05
0.000839099
0.00172663
0.00187565
0.00172843
0.0022029
0.0031342
0.00344527
0.00346926
0.0038293
0.00430738
0.00469662
0.00458274
0.00395904
0.00359934
0.000237225
-0.000463365
0.000293113
0.00153733
0.000685453
2.76807e-05
0.000826539
0.00170488
0.00185822
0.00170415
0.00215244
0.00308219
0.00338606
0.0033336
0.00364894
0.00414158
0.00448117
0.00431657
0.00371711
0.00333084
0.000259552
-0.000475113
0.00024816
0.00155791
0.00070275
9.85588e-06
0.000815791
0.00168121
0.00183427
0.00168463
0.00209805
0.0030143
0.00332511
0.00320372
0.00345702
0.00396037
0.00427535
0.00406448
0.00347519
0.00307485
0.000282472
-0.000484672
0.000196749
0.00157712
0.000724747
-1.29854e-05
0.000805734
0.00165799
0.00180216
0.00166465
0.00204378
0.00293134
0.00325632
0.00308201
0.00325944
0.00376212
0.00407292
0.00382832
0.00323855
0.00282939
0.000305548
-0.000491242
0.000138987
0.00159328
0.000753003
-4.08101e-05
0.000794302
0.00163781
0.0017611
0.00164174
0.00199281
0.00283397
0.00317331
0.00296757
0.00306489
0.00354869
0.00386603
0.00360567
0.0030124
0.00259622
0.000328306
-0.000493978
7.51634e-05
0.00160437
0.000788721
-7.30775e-05
0.000778851
0.00162282
0.00171161
0.0016117
0.00194683
0.00272758
0.00307195
0.00285689
0.00288068
0.00332488
0.00364915
0.00339167
0.00279809
0.0023786
0.000350194
-0.000492062
5.94082e-06
0.00160811
0.000832742
-0.00010839
0.000756141
0.00161415
0.00165624
0.00157002
0.00190594
0.0026194
0.00295126
0.00274256
0.00270958
0.00309939
0.00342178
0.00317867
0.00259144
0.00217831
0.000370517
-0.000484739
-6.75143e-05
0.001602
0.000885458
-0.000144409
0.000722795
0.00161178
0.00159937
0.00151277
0.00186717
0.00251677
0.00281343
0.00261541
0.00254929
0.00288243
0.00318814
0.0029612
0.00238534
0.00198981
0.000388471
-0.000471312
-0.000143686
0.00158336
0.000946679
-0.000178024
0.000675884
0.00161434
0.00154632
0.00143733
0.00182409
0.00242551
0.00266419
0.0024693
0.00239458
0.00268054
0.00295457
0.00273921
0.002173
0.0018009
0.000403318
-0.000451378
-0.000220637
0.0015498
0.00101533
-0.000205555
0.000613221
0.00161845
0.00150244
0.00134411
0.00176823
0.00234641
0.00251384
0.00230312
0.00223565
0.00249421
0.00273066
0.00251659
0.00195376
0.00159832
0.000414324
-0.000424737
-0.000296183
0.00149926
0.00108931
-0.000222802
0.000534099
0.0016189
0.00147188
0.00123714
0.00169146
0.00227684
0.00237427
0.00212087
0.00206105
0.00231858
0.00252544
0.00229902
0.00173286
0.00137542
0.000420709
-0.000391474
-0.000367949
0.00143015
0.00116582
-0.000225544
0.000438933
0.00160942
0.00145704
0.0011232
0.00158817
0.00221084
0.00225421
0.00193007
0.00186338
0.00214417
0.00234231
0.0020951
0.00151636
0.00113738
0.000421894
-0.000352103
-0.000433401
0.00134186
0.00124087
-0.00021007
0.000329471
0.00158289
0.00145806
0.00101101
0.00145597
0.00213756
0.00215668
0.00174319
0.00164235
0.00195675
0.00217717
0.00191497
0.00131001
0.00089573
0.000417471
-0.00030759
-0.000490131
0.00123494
0.0013094
-0.000174126
0.000209632
0.00153295
0.00147235
0.000910618
0.00129671
0.00204444
0.00207906
0.00157539
0.00140506
0.00174289
0.0020195
0.00176573
0.0011219
0.000658796
0.000407094
-0.000259386
-0.000535676
0.00111079
0.00136631
-0.000116942
8.50898e-05
0.00145494
0.00149421
0.000830665
0.00111529
0.00192058
0.00201471
0.00143836
0.0011628
0.0014972
0.00185143
0.00164509
0.000964531
0.000431355
0.000390719
-0.000209281
-0.000568121
0.000971908
0.00140708
-3.92794e-05
-3.12729e-05
0.00134651
0.00151502
0.000776755
0.000921709
0.00175967
0.00195154
0.00133674
0.000931498
0.00122447
0.00165398
0.00153967
0.000851043
0.000222185
0.000368532
-0.000159362
-0.000586063
0.000822645
0.00142571
5.62294e-05
-0.000135714
0.00120756
0.00152453
0.000750972
0.000729672
0.0015612
0.00187388
0.00126785
0.00072821
0.000936076
0.00141693
0.00142612
0.000782086
5.01035e-05
0.000340898
-0.000111868
-0.000588765
0.000668365
0.00141785
0.000164394
-0.000221556
0.00104077
0.00151201
0.000751121
0.000553397
0.00133026
0.00176659
0.00122344
0.000566041
0.000647002
0.00114261
0.00127944
0.000739474
-6.279e-05
0.000308547
-6.88522e-05
-0.000576369
0.000514601
0.0013811
0.000279508
-0.000282971
0.000852713
0.00146901
0.000770164
0.000404244
0.00107611
0.00161924
0.00118843
0.000450171
0.000375317
0.000842233
0.00108649
0.000693379
-0.000111242
0.00027231
-3.2197e-05
-0.000549942
0.00036699
0.00131387
0.000386221
-0.000315886
0.000653911
0.00138976
0.000797234
0.000289371
0.000813416
0.00142829
0.00114347
0.000376952
0.000138443
0.000530024
0.000848871
0.000612307
-0.000117458
0.000233089
-3.34616e-06
-0.00051176
0.000230514
0.00121637
0.00047964
-0.0003192
0.000456371
0.00127195
0.000819232
0.000210673
0.000559463
0.00119782
0.0010708
0.000336165
-5.12206e-05
0.000223142
0.000578048
0.000480208
-0.000117831
0.000192024
1.67801e-05
-0.000465262
0.000108918
0.00109211
0.000551855
-0.00029449
0.000271572
0.00111775
0.00082295
0.000165664
0.000329809
0.000937765
0.000958699
0.000309652
-0.000190233
-6.06997e-05
0.000287875
0.000298893
-0.000149482
0.000150124
2.77024e-05
-0.000414539
4.72564e-06
0.000947217
0.000597514
-0.000247984
0.000107881
0.000933287
0.000797992
0.000145255
0.00013417
0.000662918
0.000803424
0.000276311
-0.000284547
-0.000306572
-6.67402e-06
8.04428e-05
-0.000231364
0.000108037
2.94324e-05
-0.000363906
-8.08712e-05
0.000789378
0.000613185
-0.000190807
-2.96045e-05
0.000728833
0.000738422
0.000136442
-2.35842e-05
0.000390661
0.000609155
0.000218727
-0.000346895
-0.000505835
-0.000289994
-0.000160811
-0.000362188
6.69978e-05
2.2564e-05
-0.000317371
-0.000147974
0.000626563
0.000596791
-0.000132304
-0.000138165
0.00051723
0.000643069
0.000125238
-0.00014526
0.0001367
0.000385981
0.000126857
-0.00039598
-0.000659069
-0.000548119
-0.000411718
-0.000529855
2.72801e-05
8.0225e-06
-0.000261408
-0.000198022
0.000466155
0.000548931
-8.11032e-05
-0.000217438
0.00031084
0.000515015
9.94475e-05
-0.00023688
-8.84082e-05
0.000147658
-1.21628e-06
-0.000450459
-0.000774572
-0.000771007
-0.000659713
-0.000720302
-1.12105e-05
-1.3859e-05
-0.000233563
-0.000234332
0.000314138
0.000473382
-4.56008e-05
-0.00027245
0.000119176
0.000360688
5.11543e-05
-0.000308615
-0.000280629
-9.07706e-05
-0.000160346
-0.00052341
-0.000865962
-0.000955682
-0.000893406
-0.000921754
-4.83622e-05
-4.17813e-05
-0.000216045
-0.00026024
0.000174581
0.000375946
-3.13921e-05
-0.00031008
-5.1754e-05
0.00018967
-2.28731e-05
-0.000372386
-0.00044176
-0.000316595
-0.000340725
-0.000620704
-0.000948992
-0.00110643
-0.0011041
-0.00112437
-8.46988e-05
-7.43723e-05
-0.000209468
-0.000279593
4.98536e-05
0.000263441
-4.09659e-05
-0.000338423
-0.000199704
1.24692e-05
-0.000121609
-0.000438487
-0.000576946
-0.000522001
-0.000530941
-0.000741586
-0.0010361
-0.00123209
-0.00128796
-0.00131967
-0.00012048
-0.000110381
-0.000213604
-0.000296193
-6.00113e-05
0.000142761
-7.4251e-05
-0.000365408
-0.000325746
-0.000161552
-0.000240666
-0.000513842
-0.000693506
-0.000704482
-0.000720422
-0.000880513
-0.00113407
-0.00134376
-0.00144633
-0.00150108
-0.000156069
-0.000148745
-0.000227556
-0.000313372
-0.000155921
2.00439e-05
-0.000128845
-0.000397407
-0.000432982
-0.000325741
-0.000373835
-0.000601742
-0.000799435
-0.000865408
-0.000901466
-0.00102998
-0.00124445
-0.00145075
-0.00158419
-0.00166505
-0.000191793
-0.000188699
-0.000250086
-0.000334519
-0.000240032
-0.000100042
-0.000200655
-0.000438443
-0.000526195
-0.000476596
-0.000514114
-0.000702228
-0.000901341
-0.00100798
-0.00106981
-0.00118279
-0.00136512
-0.00155879
-0.00170829
-0.00181166
-0.000227932
-0.000229711
-0.000279836
-0.000360061
-0.000314833
-0.000214418
-0.000284863
-0.000490282
-0.000610605
-0.000613313
-0.000655085
-0.000812856
-0.00100358
-0.00113668
-0.00122412
-0.00133321
-0.00149215
-0.00167003
-0.00182451
-0.00194361
-0.000264676
-0.00027142
-0.000315286
-0.000390627
-0.00038272
-0.000321418
-0.000376679
-0.000552763
-0.000690719
-0.00073699
-0.000791971
-0.000929821
-0.00110816
-0.00125591
-0.00136494
-0.00147726
-0.00162121
-0.00178408
-0.00193669
-0.00206459
-0.000302105
-0.000313563
-0.000354925
-0.000426197
-0.000445955
-0.000420504
-0.000471823
-0.000624277
-0.000769635
-0.000849531
-0.000921893
-0.0010491
-0.00121512
-0.00136903
-0.00149399
-0.00161277
-0.00174855
-0.0018992
-0.0020466
-0.00217778
-0.000340175
-0.000355916
-0.000397428
-0.000466208
-0.000506267
-0.000511928
-0.000566887
-0.000702415
-0.000849026
-0.000953192
-0.00104352
-0.00116719
-0.00132323
-0.00147808
-0.00161342
-0.00173905
-0.00187138
-0.00201315
-0.00215442
-0.00228528
-0.00037871
-0.000398272
-0.000441632
-0.000509666
-0.000564739
-0.000596363
-0.000659459
-0.000784448
-0.000929343
-0.00104998
-0.00115651
-0.00128142
-0.00143062
-0.00158384
-0.00172502
-0.00185631
-0.00198789
-0.00212381
-0.00225942
-0.00238803
-0.000417413
-0.000440347
-0.000486555
-0.000555419
-0.000621873
-0.000674558
-0.000747909
-0.000867665
-0.00101007
-0.00114131
-0.00126115
-0.00138993
-0.00153528
-0.00168608
-0.00182993
-0.00196514
-0.00209713
-0.00222948
-0.00236049
-0.00248612
-0.000455866
-0.000481759
-0.000531339
-0.000602286
-0.000677651
-0.000747106
-0.000831198
-0.000949697
-0.00109007
-0.00122787
-0.00135792
-0.00149153
-0.0016354
-0.001784
-0.0019286
-0.00206609
-0.0021987
-0.00232893
-0.00245646
-0.0025791
-0.000493532
-0.000522043
-0.000575164
-0.000649038
-0.000731656
-0.000814347
-0.000908665
-0.00102858
-0.00116791
-0.00130969
-0.00144716
-0.0015855
-0.00172945
-0.00187651
-0.00202089
-0.00215939
-0.00229239
-0.00242129
-0.00254627
-0.00266627
-0.000529764
-0.000560609
-0.000617203
-0.000694456
-0.000783205
-0.000876335
-0.000979776
-0.00110265
-0.00124199
-0.00138631
-0.00152896
-0.00167138
-0.00181626
-0.00196247
-0.00210629
-0.00224497
-0.00237799
-0.00250593
-0.00262902
-0.00274682
-0.000563802
-0.000596738
-0.000656597
-0.00073736
-0.000831384
-0.000932752
-0.00104398
-0.0011705
-0.00131071
-0.00145682
-0.00160302
-0.00174868
-0.00189484
-0.00204076
-0.00218403
-0.00232247
-0.00245522
-0.00258235
-0.002704
-0.00282002
-0.000594763
-0.000629564
-0.000692432
-0.000776593
-0.00087513
-0.000982979
-0.00110065
-0.00123091
-0.0013725
-0.00152001
-0.00166864
-0.00181674
-0.00196417
-0.00211016
-0.00225301
-0.00239106
-0.00252342
-0.00264989
-0.00277046
-0.0028851
-0.000621691
-0.000658076
-0.000723569
-0.000810829
-0.000913157
-0.00102608
-0.00114894
-0.00128262
-0.00142574
-0.00157439
-0.00172471
-0.0018746
-0.00202312
-0.00216931
-0.00231183
-0.00244942
-0.00258129
-0.00270717
-0.00282699
-0.00294068
-0.000643698
-0.000681371
-0.000748873
-0.00083849
-0.000943649
-0.0010603
-0.00118712
-0.00132359
-0.00146804
-0.00161752
-0.00176897
-0.00192017
-0.00206963
-0.00221614
-0.00235852
-0.00249576
-0.00262719
-0.0027525
-0.00287157
-0.00298438
-0.000660655
-0.000700863
-0.000771088
-0.000863165
-0.000971024
-0.00109106
-0.00122136
-0.00136046
-0.0015065
-0.00165708
-0.00180967
-0.001962
-0.00211234
-0.00225933
-0.00240187
-0.00253911
-0.00267047
-0.00279563
-0.00291441
-0.0030268
0.0201734
0.0136437
0.00438567
-0.00254318
-0.00513414
-0.0051009
-0.00459825
-0.00435652
-0.00450666
-0.00489646
-0.0051125
-0.00513909
-0.005348
-0.00564961
-0.00582904
-0.00608443
-0.00640543
-0.00659907
-0.00682298
-0.00716601
-0.00744213
-0.00763338
-0.00785582
-0.00809942
-0.00829534
-0.0084351
-0.0085766
-0.00874963
-0.00890381
-0.00902685
-0.00917319
-0.0093374
-0.0094762
-0.00961368
-0.00978545
-0.00996724
-0.010135
-0.010307
-0.0104983
-0.010699
-0.0109009
-0.0111087
-0.011326
-0.011551
-0.0117825
-0.0120207
-0.0122664
-0.0125192
-0.012779
-0.013046
-0.0133201
-0.0136013
-0.0138894
-0.0141844
-0.0144862
-0.0147946
-0.0151095
-0.0154311
-0.0157592
-0.016094
-0.0164353
-0.0167834
-0.0171382
-0.0174998
-0.0178684
-0.0182439
-0.0186265
-0.0190163
-0.0194134
-0.0198179
-0.0202299
-0.0206496
-0.0210769
-0.0215123
-0.0219554
-0.0224071
-0.0228664
-0.0233352
-0.0238111
-0.0242976
-0.0247907
-0.0252954
-0.0258067
-0.0263294
-0.0268605
-0.0274006
-0.0279535
-0.0285107
-0.0290856
-0.0296622
-0.0302558
-0.0308568
-0.0314643
-0.0320911
-0.0327133
-0.0333548
-0.0339937
-0.0346324
-0.0352154
-0.0357654
0.0192181
0.0134914
0.00447606
-0.00241176
-0.00504982
-0.00505759
-0.0045722
-0.00433916
-0.00449407
-0.00488705
-0.00510487
-0.00513193
-0.00534171
-0.00564454
-0.00582437
-0.00608022
-0.0064021
-0.00659604
-0.00682004
-0.00716362
-0.00744019
-0.00763159
-0.00785426
-0.0080982
-0.0082944
-0.00843433
-0.00857593
-0.00874911
-0.00890344
-0.00902652
-0.00917291
-0.00933723
-0.00947608
-0.00961356
-0.00978534
-0.00996719
-0.010135
-0.010307
-0.0104983
-0.010699
-0.0109009
-0.0111087
-0.011326
-0.011551
-0.0117825
-0.0120207
-0.0122664
-0.0125192
-0.012779
-0.013046
-0.0133201
-0.0136013
-0.0138894
-0.0141844
-0.0144862
-0.0147946
-0.0151095
-0.0154311
-0.0157592
-0.016094
-0.0164353
-0.0167834
-0.0171382
-0.0174998
-0.0178684
-0.0182439
-0.0186265
-0.0190163
-0.0194134
-0.0198179
-0.0202299
-0.0206496
-0.0210769
-0.0215123
-0.0219554
-0.0224071
-0.0228664
-0.0233352
-0.0238111
-0.0242976
-0.0247907
-0.0252954
-0.0258067
-0.0263294
-0.0268605
-0.0274006
-0.0279535
-0.0285107
-0.0290856
-0.0296622
-0.0302558
-0.0308568
-0.0314643
-0.0320911
-0.0327133
-0.0333548
-0.0339937
-0.0346324
-0.0352154
-0.0357653
0.0184049
0.0134041
0.00469182
-0.00215644
-0.00490948
-0.0050026
-0.00454311
-0.00431769
-0.00447783
-0.00487476
-0.00509515
-0.0051237
-0.00533496
-0.00563905
-0.00581925
-0.00607566
-0.00639846
-0.00659274
-0.00681699
-0.00716116
-0.00743805
-0.00762956
-0.00785251
-0.0080968
-0.00829326
-0.00843336
-0.00857512
-0.00874851
-0.00890299
-0.0090261
-0.00917256
-0.009337
-0.00947591
-0.00961339
-0.00978522
-0.00996711
-0.0101349
-0.0103069
-0.0104983
-0.0106989
-0.0109009
-0.0111087
-0.0113259
-0.011551
-0.0117825
-0.0120207
-0.0122664
-0.0125192
-0.012779
-0.013046
-0.0133201
-0.0136013
-0.0138894
-0.0141844
-0.0144862
-0.0147946
-0.0151095
-0.0154311
-0.0157592
-0.016094
-0.0164353
-0.0167834
-0.0171382
-0.0174998
-0.0178684
-0.0182439
-0.0186265
-0.0190163
-0.0194134
-0.0198179
-0.0202299
-0.0206496
-0.0210769
-0.0215123
-0.0219554
-0.0224071
-0.0228664
-0.0233352
-0.0238111
-0.0242976
-0.0247907
-0.0252954
-0.0258067
-0.0263294
-0.0268605
-0.0274006
-0.0279535
-0.0285107
-0.0290856
-0.0296622
-0.0302558
-0.0308568
-0.0314643
-0.0320911
-0.0327133
-0.0333548
-0.0339937
-0.0346324
-0.0352155
-0.0357654
0.0176512
0.0133042
0.00494699
-0.00184567
-0.00472666
-0.00492871
-0.00450053
-0.00428479
-0.00445304
-0.00485538
-0.00507998
-0.00511226
-0.00532609
-0.00563161
-0.00581242
-0.00606931
-0.0063929
-0.00658793
-0.00681279
-0.00715742
-0.00743455
-0.00762634
-0.00784967
-0.00809427
-0.00829106
-0.00843154
-0.00857366
-0.00874737
-0.00890209
-0.00902531
-0.00917189
-0.0093365
-0.00947553
-0.00961309
-0.00978499
-0.00996693
-0.0101348
-0.0103068
-0.0104982
-0.0106989
-0.0109009
-0.0111086
-0.0113259
-0.011551
-0.0117825
-0.0120207
-0.0122664
-0.0125192
-0.012779
-0.013046
-0.0133201
-0.0136013
-0.0138894
-0.0141844
-0.0144862
-0.0147946
-0.0151095
-0.0154311
-0.0157592
-0.016094
-0.0164353
-0.0167834
-0.0171382
-0.0174998
-0.0178684
-0.0182439
-0.0186265
-0.0190163
-0.0194134
-0.0198179
-0.0202299
-0.0206496
-0.0210769
-0.0215123
-0.0219554
-0.0224071
-0.0228664
-0.0233352
-0.0238111
-0.0242976
-0.0247907
-0.0252954
-0.0258067
-0.0263294
-0.0268605
-0.0274006
-0.0279535
-0.0285107
-0.0290856
-0.0296622
-0.0302558
-0.0308568
-0.0314643
-0.0320911
-0.0327133
-0.0333548
-0.0339937
-0.0346324
-0.0352156
-0.0357654
0.016884
0.0131427
0.00519626
-0.0015201
-0.00452798
-0.0048464
-0.00445122
-0.00424397
-0.00442019
-0.00482779
-0.00505791
-0.00509642
-0.00531393
-0.00562122
-0.00580328
-0.00606048
-0.00638449
-0.00658092
-0.00680685
-0.00715153
-0.00742876
-0.00762117
-0.00784497
-0.00808972
-0.00828691
-0.00842812
-0.00857092
-0.00874515
-0.00890027
-0.00902379
-0.00917058
-0.00933541
-0.00947471
-0.0096125
-0.00978451
-0.0099665
-0.0101344
-0.0103066
-0.010498
-0.0106987
-0.0109007
-0.0111086
-0.0113259
-0.011551
-0.0117824
-0.0120207
-0.0122664
-0.0125192
-0.012779
-0.013046
-0.0133201
-0.0136013
-0.0138894
-0.0141844
-0.0144862
-0.0147946
-0.0151095
-0.0154311
-0.0157592
-0.016094
-0.0164353
-0.0167834
-0.0171382
-0.0174998
-0.0178684
-0.0182439
-0.0186265
-0.0190163
-0.0194134
-0.0198179
-0.0202299
-0.0206496
-0.0210769
-0.0215123
-0.0219554
-0.0224071
-0.0228664
-0.0233352
-0.0238111
-0.0242976
-0.0247907
-0.0252954
-0.0258067
-0.0263294
-0.0268605
-0.0274006
-0.0279535
-0.0285107
-0.0290856
-0.0296622
-0.0302558
-0.0308568
-0.0314643
-0.0320911
-0.0327133
-0.0333548
-0.0339938
-0.0346325
-0.0352157
-0.0357655
0.016106
0.0129216
0.00543859
-0.00118394
-0.00431815
-0.00476007
-0.0044014
-0.00420096
-0.00438318
-0.00479483
-0.00503074
-0.00507694
-0.0052987
-0.00560809
-0.00579208
-0.00604928
-0.00637322
-0.00657173
-0.00679911
-0.00714321
-0.0074203
-0.00761371
-0.00783806
-0.00808271
-0.00828033
-0.00842268
-0.0085665
-0.0087414
-0.00889716
-0.00902124
-0.00916834
-0.00933346
-0.00947324
-0.00961147
-0.00978364
-0.00996567
-0.0101338
-0.0103061
-0.0104977
-0.0106985
-0.0109005
-0.0111084
-0.0113258
-0.0115509
-0.0117824
-0.0120207
-0.0122663
-0.0125192
-0.012779
-0.013046
-0.0133201
-0.0136013
-0.0138894
-0.0141844
-0.0144862
-0.0147946
-0.0151095
-0.0154311
-0.0157592
-0.016094
-0.0164353
-0.0167834
-0.0171382
-0.0174998
-0.0178684
-0.0182439
-0.0186265
-0.0190163
-0.0194134
-0.0198179
-0.0202299
-0.0206496
-0.0210769
-0.0215123
-0.0219554
-0.0224071
-0.0228664
-0.0233352
-0.0238111
-0.0242976
-0.0247907
-0.0252954
-0.0258067
-0.0263294
-0.0268605
-0.0274006
-0.0279535
-0.0285107
-0.0290856
-0.0296622
-0.0302558
-0.0308568
-0.0314643
-0.0320911
-0.0327133
-0.0333548
-0.0339938
-0.0346325
-0.0352159
-0.0357657
0.0153325
0.0126547
0.00567514
-0.000838056
-0.00409756
-0.00467032
-0.00435275
-0.00415769
-0.00434386
-0.00475871
-0.00500043
-0.00505489
-0.00528127
-0.00559305
-0.00577939
-0.00603633
-0.00635985
-0.00656092
-0.00678994
-0.00713283
-0.00740948
-0.00760416
-0.00782906
-0.00807333
-0.00827139
-0.00841522
-0.00856035
-0.00873603
-0.00889262
-0.00901754
-0.00916505
-0.0093305
-0.00947098
-0.00960989
-0.00978227
-0.00996435
-0.0101327
-0.0103054
-0.0104971
-0.0106979
-0.0109001
-0.0111081
-0.0113255
-0.0115507
-0.0117822
-0.0120206
-0.0122663
-0.0125191
-0.012779
-0.013046
-0.0133201
-0.0136013
-0.0138894
-0.0141844
-0.0144862
-0.0147946
-0.0151095
-0.0154311
-0.0157592
-0.016094
-0.0164353
-0.0167834
-0.0171382
-0.0174998
-0.0178684
-0.0182439
-0.0186265
-0.0190163
-0.0194134
-0.0198179
-0.0202299
-0.0206496
-0.0210769
-0.0215123
-0.0219554
-0.0224071
-0.0228664
-0.0233352
-0.0238111
-0.0242976
-0.0247907
-0.0252954
-0.0258067
-0.0263294
-0.0268605
-0.0274006
-0.0279535
-0.0285107
-0.0290856
-0.0296622
-0.0302558
-0.0308568
-0.0314643
-0.0320911
-0.0327133
-0.0333548
-0.0339938
-0.0346326
-0.0352162
-0.0357659
0.0145773
0.012347
0.00589842
-0.000486547
-0.0038664
-0.004576
-0.00430477
-0.00411441
-0.00430279
-0.00472031
-0.00496783
-0.00503094
-0.00526234
-0.00557675
-0.00576562
-0.00602219
-0.00634512
-0.00654902
-0.00677979
-0.00712109
-0.00739704
-0.00759305
-0.00781845
-0.00806212
-0.00826059
-0.00840615
-0.00855278
-0.00872927
-0.00888683
-0.0090128
-0.00916078
-0.00932658
-0.00946796
-0.00960777
-0.00978042
-0.00996253
-0.0101312
-0.0103043
-0.0104963
-0.0106972
-0.0108995
-0.0111076
-0.0113252
-0.0115505
-0.011782
-0.0120205
-0.0122662
-0.0125191
-0.012779
-0.013046
-0.0133201
-0.0136013
-0.0138894
-0.0141844
-0.0144862
-0.0147946
-0.0151095
-0.0154311
-0.0157592
-0.016094
-0.0164353
-0.0167834
-0.0171382
-0.0174998
-0.0178684
-0.0182439
-0.0186265
-0.0190163
-0.0194134
-0.0198179
-0.0202299
-0.0206496
-0.0210769
-0.0215123
-0.0219554
-0.0224071
-0.0228664
-0.0233352
-0.0238111
-0.0242976
-0.0247907
-0.0252954
-0.0258067
-0.0263294
-0.0268605
-0.0274006
-0.0279535
-0.0285107
-0.0290856
-0.0296622
-0.0302558
-0.0308568
-0.0314643
-0.0320911
-0.0327133
-0.0333548
-0.0339938
-0.0346327
-0.0352165
-0.0357661
0.0138506
0.0119993
0.00609873
-0.00013251
-0.00362277
-0.00447446
-0.00425651
-0.00407168
-0.00426073
-0.00468013
-0.00493336
-0.00500544
-0.00524223
-0.00555944
-0.00575099
-0.00600718
-0.00632944
-0.00653627
-0.00676894
-0.0071085
-0.00738358
-0.00758091
-0.00780676
-0.00804968
-0.00824852
-0.00839598
-0.00854424
-0.00872154
-0.00888012
-0.00900726
-0.00915575
-0.00932192
-0.00946434
-0.00960519
-0.00977814
-0.0099603
-0.0101293
-0.0103029
-0.0104952
-0.0106963
-0.0108987
-0.011107
-0.0113247
-0.0115501
-0.0117818
-0.0120202
-0.012266
-0.012519
-0.0127789
-0.0130459
-0.0133201
-0.0136013
-0.0138894
-0.0141844
-0.0144862
-0.0147946
-0.0151095
-0.0154311
-0.0157592
-0.016094
-0.0164353
-0.0167834
-0.0171382
-0.0174998
-0.0178684
-0.0182439
-0.0186265
-0.0190163
-0.0194134
-0.0198179
-0.0202299
-0.0206496
-0.0210769
-0.0215123
-0.0219554
-0.0224071
-0.0228664
-0.0233352
-0.0238111
-0.0242976
-0.0247907
-0.0252954
-0.0258067
-0.0263294
-0.0268605
-0.0274006
-0.0279535
-0.0285107
-0.0290856
-0.0296622
-0.0302558
-0.0308568
-0.0314643
-0.0320911
-0.0327133
-0.0333548
-0.0339939
-0.0346329
-0.0352169
-0.0357664
0.0131595
0.0116138
0.00626936
0.000223081
-0.00336436
-0.00436376
-0.00420801
-0.00403079
-0.00421866
-0.00463849
-0.00489712
-0.00497848
-0.005221
-0.0055412
-0.0057356
-0.00599147
-0.00631293
-0.00652277
-0.00675753
-0.00709531
-0.00736941
-0.00756805
-0.00779433
-0.0080364
-0.0082356
-0.00838503
-0.00853502
-0.00871318
-0.00887279
-0.00900116
-0.00915018
-0.00931674
-0.00946026
-0.00960227